
                                 *****************
                                 * O   R   C   A *
                                 *****************

                                            #,                                       
                                            ###                                      
                                            ####                                     
                                            #####                                    
                                            ######                                   
                                           ########,                                 
                                     ,,################,,,,,                         
                               ,,#################################,,                 
                          ,,##########################################,,             
                       ,#########################################, ''#####,          
                    ,#############################################,,   '####,        
                  ,##################################################,,,,####,       
                ,###########''''           ''''###############################       
              ,#####''   ,,,,##########,,,,          '''####'''          '####       
            ,##' ,,,,###########################,,,                        '##       
           ' ,,###''''                  '''############,,,                           
         ,,##''                                '''############,,,,        ,,,,,,###''
      ,#''                                            '''#######################'''  
     '                                                          ''''####''''         
             ,#######,   #######,   ,#######,      ##                                
            ,#'     '#,  ##    ##  ,#'     '#,    #''#        ,####,    ,#,          
            ##       ##  ##   ,#'  ##            #'  '#       #'       ,# #          
            ##       ##  #######   ##           ,######,      #####,      #          
            '#,     ,#'  ##    ##  '#,     ,#' ,#      #,     #,   #      #          
             '#######'   ##     ##  '#######'  #'      '#     '####' #    #          



                #########################################################
                #                        -***-                          #
                #          Department of theory and spectroscopy        #
                #                                                       #
                #                      Frank Neese                      #
                #                                                       #
                #     Directorship, Architecture, Infrastructure        #
                #                    SHARK, DRIVERS                     #
                #        Core code/Algorithms in most modules           #
                #                                                       #
                #        Max Planck Institute fuer Kohlenforschung      #
                #                Kaiser Wilhelm Platz 1                 #
                #                 D-45470 Muelheim/Ruhr                 #
                #                      Germany                          #
                #                                                       #
                #                  All rights reserved                  #
                #                        -***-                          #
                #########################################################


                         Program Version 6.1.0  -  RELEASE   -
                                (GIT: $679e74b$)
                          ($2025-06-10 18:02:51 +0200$)


 With contributions from (in alphabetic order):
[Max-Planck-Institut fuer Kohlenforschung]                               
  Daniel Aravena         : Magnetic Suceptibility                        
  Michael Atanasov       : Ab Initio Ligand Field Theory (pilot matlab implementation)
  Alexander A. Auer      : GIAO ZORA, VPT2 properties, NMR spectrum      
  Ute Becker             : All parallelization in ORCA, NUMFREQ, NUMCALC 
  Giovanni Bistoni       : ED, misc. LED, open-shell LED, HFLD           
  Dmytro Bykov           : pre 5.0 version of the SCF Hessian            
  Marcos Casanova-Páez   : Triplet and SCS-CIS(D). UHF-(DLPNO)-IP/EA/STEOM-CCSD. UHF-CVS-IP/STEOM-CCSD   
  Vijay G. Chilkuri      : MRCI spin determinant printing, contributions to CSF-ICE 
  Pauline Colinet        : FMM embedding                                 
  Dipayan Datta          : RHF DLPNO-CCSD density                        
  Achintya Kumar Dutta   : EOM-CC, STEOM-CC                              
  Nicolas Foglia         : Exact transition moments, OPA infrastructure, MCD improvements    
  Dmitry Ganyushin       : Spin-Orbit,Spin-Spin,Magnetic field MRCI      
  Miquel Garcia-Rates    : C-PCM and meta-GGA Hessian, CCSD/C-PCM, Gaussian charge scheme 
  Tiago L. C. Gouveia    : GS-ROHF, GS-ROCIS                             
  Yang Guo               : DLPNO-NEVPT2, F12-NEVPT2, CIM, IAO-localization        
  Andreas Hansen         : Spin unrestricted coupled pair/coupled cluster methods 
  Ingolf Harden          : AUTO-CI MPn and infrastructure                
  Benjamin Helmich-Paris : MC-RPA, TRAH-(SCF,CASSCF), AVAS, COSX integrals, SCF dyn. polar., MC-PDFT, srDFT 
  Lee Huntington         : MR-EOM, pCC                                   
  Robert Izsak           : Overlap fitted RIJCOSX, COSX-SCS-MP3, EOM     
  Riya Kayal             : Wick's Theorem for AUTO-CI, AUTO-CI UHF-CCSDT 
  Emily Kempfer          : AUTO-CI RHF CISDT and CCSDT, approximate NEVPT4
  Christian Kollmar      : KDIIS, OOCD, Brueckner-CCSD(T), CCSD density, CASPT2, CASPT2-K, improved NEVPT2 
  Axel Koslowski         : Symmetry handling                             
  Simone Kossmann        : meta-GGA functionals, TD-DFT gradient, OOMP2, (MP2 Hessian; deprecated post 5.0) 
  Lucas Lang             : DCDCAS, Hyperfine gauge corrections, ICE-SOC+SSC
  Marvin Lechner         : AUTO-CI (C++ implementation), FIC-MRCC        
  Spencer Leger          : CASSCF response                               
  Dagmar Lenk            : GEPOL surface, SMD, ORCA-2-JSON               
  Dimitrios Liakos       : Extrapolation schemes; Compound Job, Property file
  Dimitrios Manganas     : Further ROCIS development; embedding schemes. LFT, Crystal Embedding 
  Dimitrios Pantazis     : SARC Basis sets                               
  Anastasios Papadopoulos: AUTO-CI, single reference methods and gradients 
  Taras Petrenko         : pre 6.0 DFT Hessian and TD-DFT gradient,  ECA, NRVS 
  Petra Pikulova         : Analytic Raman intensities                    
  Peter Pinski           : DLPNO-MP2, DLPNO-MP2 Gradient                 
  Shashank Vittal Rao    : ES-AILFT, MagRelax                            
  Christoph Reimann      : Effective Core Potentials                     
  Marius Retegan         : Local ZFS, SOC                                
  Christoph Riplinger    : Optimizer, TS searches, QM/MM, DLPNO-CCSD(T), (RO)-DLPNO pert. Triples 
  Michael Roemelt        : Original ROCIS implementation, recursive CI coupling coefficients
  Masaaki Saitow         : Open-shell DLPNO-CCSD energy and density      
  Barbara Sandhoefer     : DKH picture change effects                    
  Yorick L. A. Schmerwitz: GMF and freeze-and-release deltaSCF, NEB S-IDPP initial path                    
  Kantharuban Sivalingam : CASSCF convergence/infrastructure, NEVPT2, NEVPT3, NEVPT4(SD), FIC-MRCI and CEPA variants
  Bernardo de Souza      : ESD, SOC TD-DFT                               
  Georgi L. Stoychev     : AutoAux, RI-MP2 NMR, DLPNO-MP2 response, X2C  
  Van Anh Tran           : RI-MP2 g-tensors                              
  Willem Van den Heuvel  : Paramagnetic NMR                              
  Zikuan Wang            : NOTCH, Electric field optimization            
  Frank Wennmohs         : Technical directorship and infrastructure     
  Hang Xu                : AUTO-CI-Response properties                   
                                                                         
[FACCTs GmbH]                                                            
  Markus Bursch, Nicolas Foglia, Miquel Garcia-Rates, Ingolf Harden, Hagen Neugebauer, Anastasios Papadopoulos, 
  Christoph Riplinger, Bernardo de Souza, Georgi L. Stoychev                                                    
                                                                 
  APM, various basis sets, CI-OPT, improved COSX, DLPNO-Multilevel,           
  DOCKER, DRACO, updates on ESD, Fragmentator, GOAT, IRC, LR-CPCM, L-BFGS, MBIS, meta-GGA TD-DFT gradient, ML-optimized integration grids, 
  MM, NACMEs, nearIR, NEB, NEB-TS, NL-DFT gradient (VV10), 2- and 3-layer-ONIOM, interface openCOSMO-RS, QMMM,   
  Crystal-QMMM, RESP, rigid body optimization, SF, symmetry and pop. for TD-DFT, various functionals, SOLVATOR                                   
                                                                         
[Other institutions]                                                     
  V. Asgeirsson          : NEB                                           
  Christoph Bannwarth    : sTDA-DFT, sTD-DFT, PBEh-3c, B97-3c, D3        
  Giovanni Bistoni       : ETS/NOCV, ADLD/ADEX, COVALED                  
  Martin Brehm           : Molecular dynamics                            
  Ronald Cardenas        : ETS/NOCV                                      
  Martina Colucci        : COVALED                                       
  Sebastian Ehlert       : rSCAN, r2SCAN, r2SCAN-3c, D4, dhf basis sets  
  Marvin Friede          : D4 for Fr, Ra, Ac-Lr                          
  Lars Goerigk           : TD-DFT with DH, B97 family of functionals     
  Stefan Grimme          : VdW corrections, initial TS optimization, DFT functionals, gCP, sTDA/sTD-DF 
  Waldemar Hujo          : DFT-NL                                        
  H. Jonsson             : NEB                                           
  Holger Kruse           : gCP                                           
  Marcel Mueller         : wB97X-3c, vDZP basis set                      
  Hagen Neugebauer       : wr2SCAN, Native XTB                           
  Gianluca Regni         : ADLD/ADEX                                     
  Tobias Risthaus        : pre 6.0 range-separated hybrid DFT and stability analysis
  Lukas Wittmann         : regularized MP2, r2SCAN double-hybrids, wr2SCAN        
                                                                         
We gratefully acknowledge several colleagues who have allowed us to      
interface, adapt or use parts of their codes:                            
  Ed Valeev, F. Pavosevic, A. Kumar             : LibInt (2-el integral package), F12 methods 
  Garnet Chan, S. Sharma, J. Yang, R. Olivares  : DMRG                   
  Ulf Ekstrom                                   : XCFun DFT Library      
  Mihaly Kallay                                 : mrcc  (arbitrary order and MRCC methods)
  Frank Weinhold                                : gennbo (NPA and NBO analysis)           
  Simon Mueller                                 : openCOSMO-RS                            
  Christopher J. Cramer and Donald G. Truhlar   : smd solvation model                     
  S Lehtola, MJT Oliveira, MAL Marques          : LibXC Library                           
  Liviu Ungur et al                             : ANISO software                          


 Your calculation uses the libint2 library for the computation of 2-el integrals
 For citations please refer to: http://libint.valeyev.net

 Your ORCA version has been built with support for libXC version: 7.0.0
 For citations please refer to: https://libxc.gitlab.io

 This ORCA versions uses:
   CBLAS   interface :  Fast vector & matrix operations
   LAPACKE interface :  Fast linear algebra routines
   SCALAPACK package :  Parallel linear algebra routines
   Shared memory     :  Shared parallel matrices
   BLAS/LAPACK       :  OpenBLAS 0.3.29  USE64BITINT DYNAMIC_ARCH NO_AFFINITY Haswell SINGLE_THREADED
        Core in use  :  Haswell
   Copyright (c) 2011-2014, The OpenBLAS Project


  ***********************************
  * Starting time: Fri Sep 26 20:46:32 2025
  * Host name:     Host-001
  * Process ID:    42739
  * Working dir.:  /home/ppravatto/Documenti/Esperimenti/ChimicaComputazionale/SPyCCI/CO2_y34k3pab_orca_PBE_def2-SVP_vacuum_nfreq
  ***********************************

NOTE: MaxCore=750 MB was set to SCF,MP2,MDCI,CIPSI,MRCI,RASCI and CIS
      => If you want to overwrite this, your respective input block should be placed after the MaxCore statement


***************************************
The coordinates will be read from file: CO2.xyz
***************************************


================================================================================

----- Orbital basis set information -----
Your calculation utilizes the basis: def2-SVP
   F. Weigend and R. Ahlrichs, Phys. Chem. Chem. Phys. 7, 3297 (2005).

----- AuxJ basis set information -----
Your calculation utilizes the auxiliary basis: def2/J
   H-Rn: F. Weigend, Phys. Chem. Chem. Phys. 8, 1057 (2006).
   Fr-Lr: K. Eichkorn, F. Weigend, O. Treutler, R. Ahlrichs; Theor. Chem. Acc. 97, 119 (1997).

================================================================================
                                        WARNINGS
                       Please study these warnings very carefully!
================================================================================

WARNING: Gradients needed for Numerical Frequencies
  ===> : Setting RunTyp to EnGrad


WARNING: Found flag for RIJCOSX approximation but no HF exchange needed!
  ===> : RIJCOSX  will be disabled and Split-RI-J is turned on

WARNING: The environment variable RSH_COMMAND is not set!
  ===> : All Displacements for the Numerical Hessian or Gradient calculation
         will be started on localhost

WARNING: Found frequency calculation in combination with XTB calculation
  ===> : Need to redirect dipole moment calculation to properties.out


================================================================================
                                       INPUT FILE
================================================================================
NAME = input.inp
|  1> %pal
|  2>   nprocs 8
|  3> end
|  4> 
|  5> %maxcore 750
|  6> 
|  7> ! PBE def2-SVP 
|  8> ! RIJCOSX def2/J
|  9> 
| 10> ! NumFreq
| 11> ! NearIR
| 12> 
| 13> %elprop
| 14>   polar 1
| 15> end
| 16> 
| 17> * xyzfile 0 1 CO2.xyz
| 18> 
| 19> 
| 20>                          ****END OF INPUT****
================================================================================

                     *******************************
                     * Energy+Gradient Calculation *
                     *******************************

---------------------------------
CARTESIAN COORDINATES (ANGSTROEM)
---------------------------------
  C     -5.735409   -0.751794    0.000000
  O     -5.485795    0.395662   -0.000000
  O     -5.985037   -1.899248   -0.000000

----------------------------
CARTESIAN COORDINATES (A.U.)
----------------------------
  NO LB      ZA    FRAG     MASS         X           Y           Z
   0 C     6.0000    0    12.011  -10.838351   -1.420685    0.000000
   1 O     8.0000    0    15.999  -10.366650    0.747693   -0.000000
   2 O     8.0000    0    15.999  -11.310080   -3.589058   -0.000000

--------------------------------
INTERNAL COORDINATES (ANGSTROEM)
--------------------------------
 C      0   0   0     0.000000000000     0.00000000     0.00000000
 O      1   0   0     1.174292556043     0.00000000     0.00000000
 O      1   2   0     1.174292761547   179.99928716     0.00000000

---------------------------
INTERNAL COORDINATES (A.U.)
---------------------------
 C      0   0   0     0.000000000000     0.00000000     0.00000000
 O      1   0   0     2.219091332024     0.00000000     0.00000000
 O      1   2   0     2.219091720370   179.99928716     0.00000000

---------------------
BASIS SET INFORMATION
---------------------
There are 2 groups of distinct atoms

 Group   1 Type C   : 7s4p1d contracted to 3s2p1d pattern {511/31/1}
 Group   2 Type O   : 7s4p1d contracted to 3s2p1d pattern {511/31/1}

Atom   0C    basis set group =>   1
Atom   1O    basis set group =>   2
Atom   2O    basis set group =>   2
---------------------------------
AUXILIARY/J BASIS SET INFORMATION
---------------------------------
There are 2 groups of distinct atoms

 Group   1 Type C   : 12s5p4d2f1g contracted to 6s4p3d1f1g pattern {711111/2111/211/2/1}
 Group   2 Type O   : 12s5p4d2f1g contracted to 6s4p3d1f1g pattern {711111/2111/211/2/1}

Atom   0C    basis set group =>   1
Atom   1O    basis set group =>   2
Atom   2O    basis set group =>   2


           ************************************************************
           *        Program running with 8 parallel MPI-processes     *
           *              working on a common directory               *
           ************************************************************
------------------------------------------------------------------------------
                             ORCA STARTUP CALCULATIONS
                           -- RI-GTO INTEGRALS CHOSEN --
------------------------------------------------------------------------------
------------------------------------------------------------------------------
                   ___                                                        
                  /   \      - P O W E R E D   B Y -                         
                 /     \                                                     
                 |  |  |   _    _      __       _____    __    __             
                 |  |  |  | |  | |    /  \     |  _  \  |  |  /  |          
                  \  \/   | |  | |   /    \    | | | |  |  | /  /          
                 / \  \   | |__| |  /  /\  \   | |_| |  |  |/  /          
                |  |  |   |  __  | /  /__\  \  |    /   |      \           
                |  |  |   | |  | | |   __   |  |    \   |  |\   \          
                \     /   | |  | | |  |  |  |  | |\  \  |  | \   \       
                 \___/    |_|  |_| |__|  |__|  |_| \__\ |__|  \__/        
                                                                              
                      - O R C A' S   B I G   F R I E N D -                    
                                      &                                       
                       - I N T E G R A L  F E E D E R -                       
                                                                              
 v1 FN, 2020, v2 2021, v3 2022-2024                                           
------------------------------------------------------------------------------


----------------------
SHARK INTEGRAL PACKAGE
----------------------

Number of atoms                             ...      3
Number of basis functions                   ...     42
Number of shells                            ...     18
Maximum angular momentum                    ...      2
Integral batch strategy                     ... SHARK/LIBINT Hybrid
RI-J (if used) integral strategy            ... SPLIT-RIJ (Revised 2003 algorithm where possible)
Printlevel                                  ...      1
Contraction scheme used                     ... SEGMENTED contraction
Prescreening option                         ... SCHWARTZ
   Thresh                                   ... 2.500e-11
   Tcut                                     ... 2.500e-12
   Tpresel                                  ... 2.500e-12 
Coulomb Range Separation                    ... NOT USED
Exchange Range Separation                   ... NOT USED
Multipole approximations                    ... NOT USED
Finite Nucleus Model                        ... NOT USED
CABS basis                                  ... NOT available
Auxiliary Coulomb fitting basis             ... AVAILABLE
   # of basis functions in Aux-J            ...    147
   # of shells in Aux-J                     ...     45
   Maximum angular momentum in Aux-J        ...      4
Auxiliary J/K fitting basis                 ... NOT available
Auxiliary Correlation fitting basis         ... NOT available
Auxiliary 'external' fitting basis          ... NOT available

Checking pre-screening integrals            ... done (  0.0 sec) Dimension = 18
   => SHARK Basis and OBASIS are compatible. Storing Pre-screening
Shell pair information
Shell pair cut-off parameter TPreSel        ...   2.5e-12
Total number of shell pairs                 ...       171
Shell pairs after pre-screening             ...       170
Total number of primitive shell pairs       ...       705
Primitive shell pairs kept                  ...       604
          la=0 lb=0:     44 shell pairs
          la=1 lb=0:     54 shell pairs
          la=1 lb=1:     21 shell pairs
          la=2 lb=0:     27 shell pairs
          la=2 lb=1:     18 shell pairs
          la=2 lb=2:      6 shell pairs

Checking whether 4 symmetric matrices of dimension 42 fit in memory
:Max Core in MB      =    750.00
 MB in use           =      3.40
 MB left             =    746.60
 MB needed           =      0.03
 Data fit in memory  = YES
Calculating RI/J V-Matrix + Cholesky decomp.... done (  0.0 sec)
Calculating Nuclear repulsion               ... done (  0.0 sec) ENN=     57.681262124404 Eh

Diagonalization of the overlap matrix:
Smallest eigenvalue                        ... 9.198e-03
Time for diagonalization                   ...    0.000 sec
Threshold for overlap eigenvalues          ... 1.000e-07
Number of eigenvalues below threshold      ... 0
Time for construction of square roots      ...    0.001 sec
Total time needed                          ...    0.002 sec

-------------------
DFT GRID GENERATION
-------------------

General Integration Accuracy     IntAcc      ... 4.388
Radial Grid Type                 RadialGrid  ... OptM3 with GC (2021)
Angular Grid (max. ang.)         AngularGrid ... 4 (Lebedev-302)
Angular grid pruning method      GridPruning ... 4 (adaptive)
Weight generation scheme         WeightScheme... mBecke (2022)
Basis function cutoff            BFCut       ... 1.0000e-11
Integration weight cutoff        WCut        ... 1.0000e-14
Partially contracted basis set               ... off
Rotationally invariant grid construction     ... off
Angular grids for H and He will be reduced by one unit

Total number of grid points                  ...    18366
Total number of batches                      ...      288
Average number of points per batch           ...       63
Average number of grid points per atom       ...     6122
Grids setup in   0.1 sec
Initializing property integral containers    ... done (  0.0 sec)

SHARK setup successfully completed in   0.2 seconds

Maximum memory used throughout the entire STARTUP-calculation: 8.8 MB


           ************************************************************
           *        Program running with 8 parallel MPI-processes     *
           *              working on a common directory               *
           ************************************************************
-------------------------------------------------------------------------------
                                 ORCA GUESS
                   Start orbitals & Density for SCF / CASSCF
-------------------------------------------------------------------------------

------------
SCF SETTINGS
------------
Hamiltonian:
 Density Functional     Method          .... DFT(GTOs)
 Exchange Functional    Exchange        .... PBE
   PBE kappa parameter   XKappa         ....  0.804000
   PBE mue parameter    XMuePBE         ....  0.219520
 Correlation Functional Correlation     .... PBE
   PBE beta parameter  CBetaPBE         ....  0.066725
 LDA part of GGA corr.  LDAOpt          .... PW91-LDA
 Gradients option       PostSCFGGA      .... off
   NL short-range parameter             ....  6.400000
 RI-approximation to the Coulomb term is turned on
   Number of AuxJ basis functions       .... 147


General Settings:
 Integral files         IntName         .... input
 Hartree-Fock type      HFTyp           .... RHF
 Total Charge           Charge          ....    0
 Multiplicity           Mult            ....    1
 Number of Electrons    NEL             ....   22
 Basis Dimension        Dim             ....   42
 Nuclear Repulsion      ENuc            ....     57.6812621244 Eh

Convergence Acceleration:
 AO-DIIS                CNVDIIS         .... on
   Start iteration      DIISMaxIt       ....    12
   Startup error        DIISStart       ....  0.200000
   # of expansion vecs  DIISMaxEq       ....     5
   Bias factor          DIISBfac        ....   1.050
   Max. coefficient     DIISMaxC        ....  10.000
 MO-DIIS                CNVKDIIS        .... off
 Trust-Rad. Augm. Hess. CNVTRAH         .... auto
   Auto Start mean grad. ratio tolernc. ....  1.125000
   Auto Start start iteration           ....    50
   Auto Start num. interpolation iter.  ....    10
   Max. Number of Micro iterations      ....    24
   Max. Number of Macro iterations      .... Maxiter - #DIIS iter
   Number of Davidson start vectors     ....     2
   Converg. threshold    (grad. norm)   ....   1.000e-05
   Grad. Scal. Fac. for Micro threshold ....   0.100
   Minimum threshold for Micro iter.    ....   1.000e-02
   NR start threshold (gradient norm)   ....   1.000e-04
   Initial trust radius                 ....   0.400
   Minimum AH scaling param. (alpha)    ....   1.000
   Maximum AH scaling param. (alpha)    .... 1000.000
   Quad. conv. algorithm                .... NR
   White noise on init. David. guess    .... on
   Maximum white noise                  ....   0.010
   Pseudo random numbers                .... off
   Inactive MOs                         .... canonical
   Orbital update algorithm             .... Taylor
   Preconditioner                       .... Diag
   Full preconditioner red. dimension   ....   250
 SOSCF                 CNVSOSCF           .... on
   Start iteration     SOSCFMaxIt         ....   150
   Startup grad/error  SOSCFStart         ....  0.003300
   Hessian update      SOSCFHessUp        .... L-BFGS
   Autom. constraints  SOSCFAutoConstrain .... off
 Level Shifting         CNVShift        .... on
   Level shift para.    LevelShift      ....    0.2500
   Turn off err/grad.   ShiftErr        ....    0.0010
 Zerner damping         CNVZerner       .... off
 Static damping         CNVDamp         .... on
   Fraction old density DampFac         ....    0.7000
   Max. Damping (<1)    DampMax         ....    0.9800
   Min. Damping (>=0)   DampMin         ....    0.0000
   Turn off err/grad.   DampErr         ....    0.1000

SCF Procedure:
 Maximum # iterations   MaxIter         ....   125
 SCF integral mode      SCFMode         .... Direct
   Integral package                     .... SHARK and LIBINT hybrid scheme
 Reset frequency        DirectResetFreq ....    20
 Integral Threshold     Thresh          ....  2.500e-11 Eh
 Primitive CutOff       TCut            ....  2.500e-12 Eh

Convergence Tolerance:
 Convergence Check Mode ConvCheckMode   .... Total+1el-Energy
 Convergence forced     ConvForced      .... 0
 Energy Change          TolE            ....  1.000e-08 Eh
 1-El. energy change                    ....  1.000e-05 Eh
 Orbital Gradient       TolG            ....  1.000e-05
 Orbital Rotation angle TolX            ....  1.000e-05
 DIIS Error             TolErr          ....  5.000e-07

------------------------------
INITIAL GUESS: MODEL POTENTIAL
------------------------------
Loading Hartree-Fock densities                     ... done
Calculating cut-offs                               ... done
Initializing the effective Hamiltonian             ... done
Setting up the integral package (SHARK)            ... done
Starting the Coulomb interaction                   ... done (   0.0 sec)
Making the grid                                    ... done (   0.2 sec)
Mapping shells                                     ... done
Starting the XC term evaluation                    ... done (   0.0 sec)
  promolecular density results
     # of electrons  =     22.000048363
     EX              =    -21.375163208
     EC              =     -0.730411695
     EX+EC           =    -22.105574903
Transforming the Hamiltonian                       ... done (   0.0 sec)
Diagonalizing the Hamiltonian                      ... done (   0.0 sec)
Back transforming the eigenvectors                 ... done (   0.0 sec)
Now organizing SCF variables                       ... done
                      ------------------
                      INITIAL GUESS DONE (   0.2 sec)
                      ------------------
             **** ENERGY FILE WAS UPDATED (input.en.tmp) ****
Finished Guess after   0.3 sec
Maximum memory used throughout the entire GUESS-calculation: 5.6 MB


           ************************************************************
           *        Program running with 8 parallel MPI-processes     *
           *              working on a common directory               *
           ************************************************************

-------------------------------------------------------------------------------------------
                                      ORCA LEAN-SCF
                              memory conserving SCF solver
-------------------------------------------------------------------------------------------

----------------------------------------D-I-I-S--------------------------------------------
Iteration    Energy (Eh)           Delta-E    RMSDP     MaxDP     DIISErr   Damp  Time(sec)
-------------------------------------------------------------------------------------------
               ***  Starting incremental Fock matrix formation  ***
    1    -188.1516084402084914     0.00e+00  2.48e-02  9.91e-02  2.05e-01  0.700   0.3
    2    -188.2084048251499553    -5.68e-02  1.12e-02  3.56e-02  5.99e-02  0.700   0.2
                               ***Turning on AO-DIIS***
    3    -188.2204466284294995    -1.20e-02  3.04e-03  8.16e-03  1.77e-02  0.700   0.1
    4    -188.2303085282665620    -9.86e-03  5.41e-03  3.12e-02  2.05e-02  0.000   0.1
    5    -188.2563015032829128    -2.60e-02  1.68e-03  4.81e-03  1.08e-02  0.000   0.2
                              *** Initializing SOSCF ***
---------------------------------------S-O-S-C-F--------------------------------------
Iteration    Energy (Eh)           Delta-E    RMSDP     MaxDP     MaxGrad    Time(sec)
--------------------------------------------------------------------------------------
    6    -188.2565826408587952    -2.81e-04  4.35e-04  1.24e-03  2.55e-03     0.1
               *** Restarting incremental Fock matrix formation ***
    7    -188.2565980452514793    -1.54e-05  3.13e-04  1.01e-03  5.05e-04     0.1
    8    -188.2565957649591439     2.28e-06  2.04e-04  8.64e-04  8.59e-04     0.1
    9    -188.2565992637280488    -3.50e-06  5.36e-05  3.16e-04  7.40e-05     0.2
   10    -188.2565992801620212    -1.64e-08  2.07e-05  1.02e-04  4.73e-05     0.1
   11    -188.2565992976168729    -1.75e-08  1.99e-06  6.71e-06  2.97e-06     0.1
   12    -188.2565992971447599     4.72e-10  8.37e-07  3.06e-06  1.34e-06     0.1
                 **** Energy Check signals convergence ****

               *****************************************************
               *                     SUCCESS                       *
               *           SCF CONVERGED AFTER  12 CYCLES          *
               *****************************************************

             **** ENERGY FILE WAS UPDATED (input.en.tmp) ****

----------------
TOTAL SCF ENERGY
----------------

Total Energy       :       -188.25659929712381 Eh           -5122.72250 eV

Components:
Nuclear Repulsion  :         57.68126212440418 Eh            1569.58694 eV
Electronic Energy  :       -245.93786142152800 Eh           -6692.30944 eV
One Electron Energy:       -371.32473714386697 Eh          -10104.25979 eV
Two Electron Energy:        125.38687572233897 Eh            3411.95035 eV

Virial components:
Potential Energy   :       -375.16826621136613 Eh          -10208.84753 eV
Kinetic Energy     :        186.91166691424232 Eh            5086.12503 eV
Virial Ratio       :          2.00719555073841

DFT components:
N(Alpha)           :       10.999999449519 electrons
N(Beta)            :       10.999999449519 electrons
N(Total)           :       21.999998899038 electrons
E(X)               :      -21.580860517789 Eh       
E(C)               :       -0.743578838591 Eh       
E(XC)              :      -22.324439356380 Eh       

---------------
SCF CONVERGENCE
---------------

  Last Energy change         ...   -4.7211e-10  Tolerance :   1.0000e-08
  Last MAX-Density change    ...    3.0644e-06  Tolerance :   1.0000e-07
  Last RMS-Density change    ...    8.3729e-07  Tolerance :   5.0000e-09
  Last DIIS Error            ...    2.5452e-03  Tolerance :   5.0000e-07
  Last Orbital Gradient      ...    1.3356e-06  Tolerance :   1.0000e-05
  Last Orbital Rotation      ...    3.0141e-06  Tolerance :   1.0000e-05


----------------
ORBITAL ENERGIES
----------------

  NO   OCC          E(Eh)            E(eV) 
   0   2.0000     -18.835935      -512.5519 
   1   2.0000     -18.835866      -512.5500 
   2   2.0000     -10.071028      -274.0466 
   3   2.0000      -1.047779       -28.5115 
   4   2.0000      -1.011642       -27.5282 
   5   2.0000      -0.488895       -13.3035 
   6   2.0000      -0.456506       -12.4222 
   7   2.0000      -0.456506       -12.4222 
   8   2.0000      -0.451408       -12.2834 
   9   2.0000      -0.322476        -8.7750 
  10   2.0000      -0.322476        -8.7750 
  11   0.0000      -0.008580        -0.2335 
  12   0.0000      -0.008580        -0.2335 
  13   0.0000       0.028971         0.7883 
  14   0.0000       0.322304         8.7703 
  15   0.0000       0.391383        10.6501 
  16   0.0000       0.391383        10.6501 
  17   0.0000       0.409508        11.1433 
  18   0.0000       0.699902        19.0453 
  19   0.0000       0.766241        20.8505 
  20   0.0000       0.850218        23.1356 
  21   0.0000       0.850219        23.1356 
*Only the first 10 virtual orbitals were printed.

                    ********************************
                    * MULLIKEN POPULATION ANALYSIS *
                    ********************************

-----------------------
MULLIKEN ATOMIC CHARGES
-----------------------
   0 C :    0.217580
   1 O :   -0.108796
   2 O :   -0.108783
Sum of atomic charges:    0.0000000

--------------------------------
MULLIKEN REDUCED ORBITAL CHARGES
--------------------------------
  0 C s       :     2.972556  s :     2.972556
      pz      :     0.857425  p :     2.673161
      px      :     0.861983
      py      :     0.953753
      dz2     :     0.007181  d :     0.136703
      dxz     :     0.002440
      dyz     :     0.051550
      dx2y2   :     0.027143
      dxy     :     0.048390

  1 O s       :     3.735485  s :     3.735485
      pz      :     1.537864  p :     4.351501
      px      :     1.526022
      py      :     1.287615
      dz2     :     0.002237  d :     0.021810
      dxz     :     0.000291
      dyz     :     0.006141
      dx2y2   :     0.006662
      dxy     :     0.006480

  2 O s       :     3.735485  s :     3.735485
      pz      :     1.537858  p :     4.351488
      px      :     1.526014
      py      :     1.287616
      dz2     :     0.002237  d :     0.021810
      dxz     :     0.000291
      dyz     :     0.006141
      dx2y2   :     0.006662
      dxy     :     0.006480



                     *******************************
                     * LOEWDIN POPULATION ANALYSIS *
                     *******************************

----------------------
LOEWDIN ATOMIC CHARGES
----------------------
   0 C :    0.096580
   1 O :   -0.048296
   2 O :   -0.048284

-------------------------------
LOEWDIN REDUCED ORBITAL CHARGES
-------------------------------
  0 C s       :     2.818377  s :     2.818377
      pz      :     0.847803  p :     2.782917
      px      :     0.858626
      py      :     1.076488
      dz2     :     0.021137  d :     0.302126
      dxz     :     0.004916
      dyz     :     0.103872
      dx2y2   :     0.071243
      dxy     :     0.100957

  1 O s       :     3.543396  s :     3.543396
      pz      :     1.513545  p :     4.468309
      px      :     1.510277
      py      :     1.444487
      dz2     :     0.005067  d :     0.036591
      dxz     :     0.000369
      dyz     :     0.007793
      dx2y2   :     0.013985
      dxy     :     0.009377

  2 O s       :     3.543396  s :     3.543396
      pz      :     1.513539  p :     4.468297
      px      :     1.510271
      py      :     1.444487
      dz2     :     0.005067  d :     0.036591
      dxz     :     0.000369
      dyz     :     0.007793
      dx2y2   :     0.013985
      dxy     :     0.009377



                      *****************************
                      * MAYER POPULATION ANALYSIS *
                      *****************************

  NA   - Mulliken gross atomic population
  ZA   - Total nuclear charge
  QA   - Mulliken gross atomic charge
  VA   - Mayer's total valence
  BVA  - Mayer's bonded valence
  FA   - Mayer's free valence

  ATOM       NA         ZA         QA         VA         BVA        FA
  0 C      5.7824     6.0000     0.2176     4.3350     4.3350    -0.0000
  1 O      8.1088     8.0000    -0.1088     2.4679     2.4679     0.0000
  2 O      8.1088     8.0000    -0.1088     2.4679     2.4679     0.0000

  Mayer bond orders larger than 0.100000
B(  0-C ,  1-O ) :   2.1675 B(  0-C ,  2-O ) :   2.1675 B(  1-O ,  2-O ) :   0.3004 


-------
TIMINGS
-------

Total SCF time: 0 days 0 hours 0 min 2 sec 

Total time                  ....       2.152 sec
Sum of individual times     ....       1.938 sec  ( 90.1%)

SCF preparation             ....       0.197 sec  (  9.2%)
Fock matrix formation       ....       1.381 sec  ( 64.2%)
  Startup                   ....       0.006 sec  (  0.4% of F)
  Split-RI-J                ....       0.096 sec  (  6.9% of F)
  XC integration            ....       1.208 sec  ( 87.5% of F)
    XC Preparation          ....       0.000 sec  (  0.0% of XC)
    Basis function eval.    ....       0.075 sec  (  6.2% of XC)
    Density eval.           ....       0.044 sec  (  3.6% of XC)
    XC-Functional eval.     ....       0.032 sec  (  2.6% of XC)
    XC-Potential eval.      ....       0.043 sec  (  3.6% of XC)
Diagonalization             ....       0.000 sec  (  0.0%)
Density matrix formation    ....       0.028 sec  (  1.3%)
Total Energy calculation    ....       0.027 sec  (  1.2%)
Population analysis         ....       0.035 sec  (  1.6%)
Orbital Transformation      ....       0.094 sec  (  4.4%)
Orbital Orthonormalization  ....       0.000 sec  (  0.0%)
DIIS solution               ....       0.076 sec  (  3.5%)
SOSCF solution              ....       0.100 sec  (  4.7%)
Finished LeanSCF after   2.2 sec

Maximum memory used throughout the entire LEANSCF-calculation: 4.3 MB

-------------------------   --------------------
FINAL SINGLE POINT ENERGY      -188.256599297124
-------------------------   --------------------



           ************************************************************
           *        Program running with 8 parallel MPI-processes     *
           *              working on a common directory               *
           ************************************************************
------------------------------------------------------------------------------
                         ORCA SCF GRADIENT CALCULATION
------------------------------------------------------------------------------

Nuc. rep. gradient        (SHARK) ... done (  0.0 sec)
HCore & Overlap gradient  (SHARK) ... done (  0.0 sec)
Split-RIJ-J gradient      (SHARK) ... done (  0.2 sec)
XC gradient                       ... done (  0.2 sec)

------------------
CARTESIAN GRADIENT
------------------

   1   C   :    0.000001396   -0.000001918    0.000000004
   2   O   :   -0.000020003    0.000004564   -0.000000002
   3   O   :    0.000018608   -0.000002646   -0.000000002

Difference to translation invariance:
           :   -0.0000000000    0.0000000000    0.0000000000

Difference to rotation invariance:
           :   -0.0000000001    0.0000000000    0.0000871246

Norm of the Cartesian gradient     ...    0.0000279257
RMS gradient                       ...    0.0000093086
MAX gradient                       ...    0.0000200034

-------
TIMINGS
-------

Total SCF gradient time     ....        0.397 sec

Densities                   ....       0.000 sec  (  0.1%)
One electron gradient       ....       0.007 sec  (  1.7%)
RI-J Coulomb gradient       ....       0.193 sec  ( 48.6%)
XC gradient                 ....       0.196 sec  ( 49.4%)

Maximum memory used throughout the entire SCFGRAD-calculation: 5.6 MB


           ************************************************************
           *        Program running with 8 parallel MPI-processes     *
           *              working on a common directory               *
           ************************************************************
------------------------------------------------------------------------------
                            ORCA SCF RESPONSE CALCULATION
------------------------------------------------------------------------------

GBWName                                 ... input.gbw
Number of atoms                         ...      3
Number of basis functions               ...     42
Max core memory                         ...    750 MB

Electric field perturbation             ... YES
Quadrupolar field perturbation          ...  NO
Magnetic field perturbation (no GIAO)   ...  NO
Magnetic field perturbation (with GIAO) ...  NO
Linear momentum (velocity) perturbation ...  NO
Spin-orbit coupling perturbation        ...  NO
Choice of electric origin               ... Center of mass
Position of electric origin             ...   -10.838361    -1.420683    -0.000000
Choice of magnetic origin               ... GIAO
Position of magnetic origin             ...     0.000000     0.000000     0.000000
Nuclear geometric perturbations         ...  NO (   9 perturbations)
Nucleus-orbit perturbations             ...  NO (   0 perturbations)
Spin-dipole/Fermi contact perturbations ...  NO (   0 perturbations)

Total number of real perturbations      ...      3
Total number of imaginary perturbations ...      0
Total number of triplet perturbations   ...      0
Total number of SOC perturbations       ...      0

Using XC Grid                  ... (input.grid_cpscf.tmp) 
Recalculating density on grid  ... (input.grho_cpscf0.tmp) done
Calculating the xc-kernel      ... (input.fxc_cpscf0.tmp) done

                                **********************
                                * REAL PERTURBATIONS *
                                **********************



-------------------
SHARK CP-SCF DRIVER
-------------------

Dimension of the orbital basis          ...     42
Dimension of the CPSCF-problem          ...    341
Number of operators                     ...      1
Max. number of iterations               ...    128
Convergence Tolerance                   ... 1.0e-04
Number of perturbations                 ...      3
Perturbation type                       ... REAL

----------------------------
POPLE LINEAR EQUATION SOLVER
----------------------------

  ITERATION   0:   ||err||_max =   2.8080e+01 (   0.1 sec   0/  3 done)
  ITERATION   1:   ||err||_max =   3.2305e-01 (   0.0 sec   0/  3 done)
  ITERATION   2:   ||err||_max =   2.5968e-02 (   0.0 sec   0/  3 done)
  ITERATION   3:   ||err||_max =   2.8668e-03 (   0.2 sec   1/  3 done)
  ITERATION   4:   ||err||_max =   3.2268e-04 (   0.1 sec   1/  3 done)
  ITERATION   5:   ||err||_max =   1.2015e-04 (   0.0 sec   2/  3 done)
  ITERATION   6:   ||err||_max =   1.0683e-05 (   0.0 sec   3/  3 done)

CP-SCF equations solved in   0.4 sec
Response densities calculated in   0.0 sec

Maximum memory used throughout the entire SCFRESP-calculation: 4.2 MB


           ************************************************************
           *        Program running with 8 parallel MPI-processes     *
           *              working on a common directory               *
           ************************************************************

------------------------------------------------------------------------------
                              ORCA PROPERTY CALCULATIONS
------------------------------------------------------------------------------

GBWName                                 ... input.gbw
Number of atoms                         ...      3
Number of basis functions               ...     42
Max core memory                         ...    750 MB

Electric properties:
Dipole moment                           ... YES
Quadrupole moment                       ...  NO
Static polarizability (Dipole/Dipole)   ... YES
Static polarizability (Dipole/Quad.)    ...  NO
Static polarizability (Quad./Quad.)     ...  NO
Static polarizability (Velocity)        ...  NO
Static hyperpolarizability              ...  NO

Atomic electric properties:
Dipole moment                           ...  NO
Quadrupole moment                       ...  NO
Static polarizability                   ...  NO

Choice of electric origin               ... Center of mass
Position of electric origin             ...   -10.838361    -1.420683    -0.000000

General magnetic properties:
Magnetizability                         ...  NO

EPR properties:
g-Tensor (aka g-matrix)                 ...  NO
Zero-Field splitting spin-orbit         ...  NO
Zero-field splitting spin-spin          ...  NO
Hyperfine couplings                     ...  NO (   0 nuclei)
Quadrupole couplings                    ...  NO (   0 nuclei)
Contact density                         ...  NO (   0 nuclei)

NMR properties:
Chemical shifts                         ...  NO (   0 nuclei)
Spin-rotation constants                 ...  NO (   0 nuclei)
Spin-spin couplings                     ...  NO (   0 nuclei,    0 pairs)

Choice of magnetic origin               ... GIAO
Position of magnetic origin             ...     0.000000     0.000000     0.000000

Properties with geometric perturbations:
SCF Hessian                             ...  NO
IR spectrum                             ...  NO
VCD spectrum                            ...  NO
X-ray spectroscopy properties:
SCF XES/XAS/RIXS spectra                ...  NO

SCF SOC stabilization energy            ...  NO
Diagonal Born-Oppenheimer correction    ...  NO

-------------
DIPOLE MOMENT
-------------

Method             : SCF
Type of density    : Electron Density
Multiplicity       :   1
Irrep              :   0
Energy             :  -188.2565992971238131 Eh
Basis              : AO
                                X                 Y                 Z
Electronic contribution:      0.000000811      -0.000026132       0.000000013
Nuclear contribution   :     -0.000000058       0.000000012      -0.000000000
                        -----------------------------------------
Total Dipole Moment    :      0.000000753      -0.000026120       0.000000013
                        -----------------------------------------
Magnitude (a.u.)       :      0.000026131
Magnitude (Debye)      :      0.000066420



--------------------
Rotational spectrum 
--------------------
 
Rotational constants in cm-1:             0.000000             0.382051             0.382051 
Rotational constants in MHz :             0.000000         11453.591782         11453.591782 

Dipole components along the rotational axes: 
x,y,z [a.u.] :    -0.000025    -0.000006     0.000000 
x,y,z [Debye]:    -0.000064    -0.000016     0.000000 

 

Dipole moment calculation done in   0.0 sec 


---------------------------------------------------
STATIC POLARIZABILITY TENSOR (Dipole/Dipole)
---------------------------------------------------

Method             : SCF
Type of density    : Electron Density
Type of derivative : Electric Field (Direction=X)
Multiplicity       :   1
Irrep              :   0
Basis              : AO

The raw cartesian tensor (atomic units):
       8.289287625         2.994403900         0.000000019  
       2.994403900        21.400396648         0.000000088  
       0.000000019         0.000000088         7.637611590  
diagonalized tensor: 
       7.637611590         7.637779651        22.051904622  

Orientation: 
       0.000001726        -0.977139052        -0.212601207  
      -0.000000382         0.212601207        -0.977139052  
       1.000000000         0.000001768        -0.000000006  

Isotropic polarizability :  12.44243


Polarizability tensor calculation done in   0.0 sec 

Maximum memory used throughout the entire PROP-calculation: 3.5 MB

----------------------------------------------------------------------------
                           ORCA NUMERICAL FREQUENCIES
                              (8-process run)
----------------------------------------------------------------------------

Number of atoms                ... 3
Central differences            ... used
Translation invariance         ... used
Number of displacements        ... 18 - 6
Numerical increment            ... 5.000e-03 bohr
IR-spectrum generation         ... on
Raman-spectrum generation      ... on
Polarizability calculation     ... 1
Surface Crossing Hessian       ... off

The output will be reduced. Please look at the following files:
SCF program output             ... >input.lastscf
Integral program output        ... >input.lastint
Gradient program output        ... >input.lastgrad
Dipole moment program output   ... >input.lastmom

List of participating nodes    ...  input.hostnames

	<< Calculating gradient on displaced geometry   1 (of  12) >>
	<< Calculating gradient on displaced geometry   6 (of  12) >>
	<< Calculating gradient on displaced geometry   5 (of  12) >>
	<< Calculating gradient on displaced geometry   3 (of  12) >>
	<< Calculating gradient on displaced geometry   7 (of  12) >>
	<< Calculating gradient on displaced geometry   8 (of  12) >>
	<< Calculating gradient on displaced geometry   2 (of  12) >>
	<< Calculating gradient on displaced geometry   4 (of  12) >>
	<< Calculating gradient on displaced geometry  12 (of  12) >>
	<< Calculating gradient on displaced geometry  10 (of  12) >>
	<< Calculating gradient on displaced geometry   9 (of  12) >>
	<< Calculating gradient on displaced geometry  11 (of  12) >>

------------------------------------------------------
Computing overtones and combination bands (delq 0.500)
------------------------------------------------------

List of participating nodes    ...  input.hostnames

	<< Displacing mode   2 of ( 45)   >>
	<<      Reference calculation     >>
	<< Displacing mode   3 of ( 45)   >>
	<< Displacing mode   4 of ( 45)   >>
	<< Displacing mode   8 of ( 45)   >>
	<< Displacing mode   6 of ( 45)   >>
	<< Displacing mode   5 of ( 45)   >>
	<< Displacing mode   7 of ( 45)   >>
	<< Displacing mode   9 of ( 45)   >>
	<< Displacing mode  13 of ( 45)   >>
	<< Displacing mode  10 of ( 45)   >>
	<< Displacing mode  14 of ( 45)   >>
	<< Displacing mode  12 of ( 45)   >>
	<< Displacing mode  11 of ( 45)   >>
	<< Displacing mode  15 of ( 45)   >>
	<< Displacing mode  16 of ( 45)   >>
	<< Displacing mode  17 of ( 45)   >>
	<< Displacing mode  20 of ( 45)   >>
	<< Displacing mode  19 of ( 45)   >>
	<< Displacing mode  22 of ( 45)   >>
	<< Displacing mode  21 of ( 45)   >>
	<< Displacing mode  18 of ( 45)   >>
	<< Displacing mode  23 of ( 45)   >>
	<< Displacing mode  24 of ( 45)   >>
	<< Displacing mode  25 of ( 45)   >>
	<< Displacing mode  26 of ( 45)   >>
	<< Displacing mode  27 of ( 45)   >>
	<< Displacing mode  29 of ( 45)   >>
	<< Displacing mode  28 of ( 45)   >>
	<< Displacing mode  30 of ( 45)   >>
	<< Displacing mode  31 of ( 45)   >>
	<< Displacing mode  32 of ( 45)   >>
	<< Displacing mode  33 of ( 45)   >>
	<< Displacing mode  34 of ( 45)   >>
	<< Displacing mode  35 of ( 45)   >>
	<< Displacing mode  37 of ( 45)   >>
	<< Displacing mode  36 of ( 45)   >>
	<< Displacing mode  39 of ( 45)   >>
	<< Displacing mode  38 of ( 45)   >>
	<< Displacing mode  40 of ( 45)   >>
	<< Displacing mode  41 of ( 45)   >>
	<< Displacing mode  42 of ( 45)   >>
	<< Displacing mode  43 of ( 45)   >>
	<< Displacing mode  44 of ( 45)   >>
	<< Displacing mode  45 of ( 45)   >>

-----------------------
VIBRATIONAL FREQUENCIES
-----------------------

Scaling factor for frequencies =  1.000000000  (already applied!)

     0:       0.00 cm**-1
     1:       0.00 cm**-1
     2:       0.00 cm**-1
     3:       0.00 cm**-1
     4:       0.00 cm**-1
     5:     622.46 cm**-1
     6:     624.16 cm**-1
     7:    1339.45 cm**-1
     8:    2422.18 cm**-1


------------
NORMAL MODES
------------

These modes are the Cartesian displacements weighted by the diagonal matrix
M(i,i)=1/sqrt(m[i]) where m[i] is the mass of the displaced atom
Thus, these vectors are normalized but *not* orthogonal

                  0          1          2          3          4          5    
      0       0.000000   0.000000   0.000000   0.000000   0.000000  -0.863133
      1       0.000000   0.000000   0.000000   0.000000   0.000000   0.187494
      2       0.000000   0.000000   0.000000   0.000000   0.000000  -0.000084
      3       0.000000   0.000000   0.000000   0.000000   0.000000   0.324036
      4       0.000000   0.000000   0.000000   0.000000   0.000000  -0.070177
      5       0.000000   0.000000   0.000000   0.000000   0.000000   0.000032
      6       0.000000   0.000000   0.000000   0.000000   0.000000   0.323948
      7       0.000000   0.000000   0.000000   0.000000   0.000000  -0.070581
      8       0.000000   0.000000   0.000000   0.000000   0.000000   0.000032
                  6          7          8    
      0       0.000083  -0.000305   0.187494
      1      -0.000018   0.000108   0.863133
      2      -0.883262   0.000000   0.000000
      3      -0.000031  -0.150196  -0.070371
      4       0.000007  -0.690987  -0.323967
      5       0.331548  -0.000000   0.000000
      6      -0.000031   0.150425  -0.070386
      7       0.000007   0.690906  -0.324017
      8       0.331548  -0.000000  -0.000000


-----------
IR SPECTRUM
-----------

 Mode   freq       eps      Int      T**2         TX        TY        TZ
       cm**-1   L/(mol*cm) km/mol    a.u.
----------------------------------------------------------------------------
  5:    622.46   0.004586   23.17  0.002299  (-0.046870  0.010104 -0.000000)
  6:    624.16   0.004575   23.12  0.002287  ( 0.000000 -0.000000 -0.047827)
  7:   1339.45   0.000000    0.00  0.000000  (-0.000072  0.000063  0.000000)
  8:   2422.18   0.096657  488.46  0.012453  ( 0.023726  0.109041 -0.000000)

* The epsilon (eps) is given for a Dirac delta lineshape.
** The dipole moment derivative (T) already includes vibrational overlap.

-------------------------------
OVERTONES AND COMBINATION BANDS
-------------------------------

   Mode     freq       eps      Int      T**2        TX        TY        TZ
           cm**-1   L/(mol*cm) km/mol    a.u.
-------------------------------------------------------------------------------
  5+   5:  1244.91   0.000000    0.00  0.000000  (-0.000003  0.000001  0.000000)
  5+   6:  1246.62   0.000000    0.00  0.000000  ( 0.000000 -0.000000 -0.000001)
  5+   7:  1961.90   0.000008    0.04  0.000001  (-0.001107 -0.000192  0.000000)
  5+   8:  3044.63   0.000000    0.00  0.000000  (-0.000002 -0.000011  0.000000)
  6+   6:  1248.32   0.000000    0.00  0.000000  (-0.000001  0.000000  0.000000)
  6+   7:  1963.61   0.000007    0.04  0.000001  (-0.000000  0.000000 -0.001090)
  6+   8:  3046.34   0.000000    0.00  0.000000  ( 0.000000  0.000000 -0.000000)
  7+   7:  2678.89   0.000000    0.00  0.000000  (-0.000002  0.000002 -0.000000)
  7+   8:  3761.62   0.002600   13.14  0.000216  ( 0.003246  0.014323  0.000000)
  8+   8:  4844.35   0.000000    0.00  0.000000  (-0.000001  0.000001 -0.000000)

* The epsilon (eps) is given for a Dirac delta lineshape.
** The dipole moment derivative (T) already includes vibrational overlap.

--------------
RAMAN SPECTRUM  
--------------

 Mode    freq (cm**-1)   Activity   Depolarization
-------------------------------------------------------------------
   5:       622.46      0.000000      0.192800
   6:       624.16      0.000000      0.747800
   7:      1339.45     15.275000      0.176400
   8:      2422.18      0.000000      0.234700

The first frequency considered to be a vibration is 5
The total number of vibrations considered is 4


--------------------------
THERMOCHEMISTRY AT 298.15K
--------------------------

Temperature         ...   298.15 K
Pressure            ...     1.00 atm
Total Mass          ...    44.01 AMU
Quasi RRHO          ...     True
Cut-Off Frequency   ...     1.00 cm^-1
The molecule is recognized as being linear

Throughout the following assumptions are being made:
  (1) The electronic state is orbitally nondegenerate
  (2) There are no thermally accessible electronically excited states
  (3) Hindered rotations indicated by low frequency modes are not
      treated as such but are treated as vibrations and this may
      cause some error
  (4) All equations used are the standard statistical mechanics
      equations for an ideal gas
  (5) All vibrations are strictly harmonic

freq.     622.46  E(vib)   ...       0.09 
freq.     624.16  E(vib)   ...       0.09 
freq.    1339.45  E(vib)   ...       0.01 
freq.    2422.18  E(vib)   ...       0.00 

------------
INNER ENERGY
------------

The inner energy is: U= E(el) + E(ZPE) + E(vib) + E(rot) + E(trans)
    E(el)   - is the total energy from the electronic structure calculation
              = E(kin-el) + E(nuc-el) + E(el-el) + E(nuc-nuc)
    E(ZPE)  - the the zero temperature vibrational energy from the frequency calculation
    E(vib)  - the the finite temperature correction to E(ZPE) due to population
              of excited vibrational states
    E(rot)  - is the rotational thermal energy
    E(trans)- is the translational thermal energy

Summary of contributions to the inner energy U:
Electronic energy                ...   -188.25659930 Eh
Zero point energy                ...      0.01140961 Eh       7.16 kcal/mol
Thermal vibrational correction   ...      0.00030480 Eh       0.19 kcal/mol
Thermal rotational correction    ...      0.00094418 Eh       0.59 kcal/mol
Thermal translational correction ...      0.00141627 Eh       0.89 kcal/mol
-----------------------------------------------------------------------
Total thermal energy                   -188.24252444 Eh


Summary of corrections to the electronic energy:
(perhaps to be used in another calculation)
Total thermal correction                  0.00266525 Eh       1.67 kcal/mol
Non-thermal (ZPE) correction              0.01140961 Eh       7.16 kcal/mol
-----------------------------------------------------------------------
Total correction                          0.01407486 Eh       8.83 kcal/mol


--------
ENTHALPY
--------

The enthalpy is H = U + kB*T
                kB is Boltzmann's constant
Total thermal energy              ...   -188.24252444 Eh 
Thermal Enthalpy correction       ...      0.00094421 Eh       0.59 kcal/mol
-----------------------------------------------------------------------
Total Enthalpy                    ...   -188.24158023 Eh


Note: Rotational entropy computed according to Herzberg 
Infrared and Raman Spectra, Chapter V,1, Van Nostrand Reinhold, 1945 
Point Group:  D(inf)h, Symmetry Number:   2  
Rotational constants in cm-1:     0.000000     0.382051     0.382051 

Vibrational entropy computed according to the QRRHO of S. Grimme
Chem.Eur.J. 2012 18 9955 using a reference frequency of 100.0 cm-1


-------
ENTROPY
-------

The entropy contributions are T*S = T*(S(el)+S(vib)+S(rot)+S(trans))
     S(el)   - electronic entropy
     S(vib)  - vibrational entropy
     S(rot)  - rotational entropy
     S(trans)- translational entropy
The entropies will be listed as multiplied by the temperature to get
units of energy

Electronic entropy                ...      0.00000000 Eh      0.00 kcal/mol
Vibrational entropy               ...      0.00040233 Eh      0.25 kcal/mol
Rotational entropy                ...      0.00623430 Eh      3.91 kcal/mol
Translational entropy             ...      0.01770880 Eh     11.11 kcal/mol
-----------------------------------------------------------------------
Final entropy term                ...      0.02434543 Eh     15.28 kcal/mol

In case the symmetry of your molecule has not been determined correctly
or in case you have a reason to use a different symmetry number we print 
out the resulting rotational entropy values for sn=1,12:

 non-linear molecules -----------------------------------
|  sn= 1 | S(rot)=      -0.00105798 Eh     -0.66 kcal/mol|
|  sn= 2 | S(rot)=      -0.00171244 Eh     -1.07 kcal/mol|
|  sn= 3 | S(rot)=      -0.00209527 Eh     -1.31 kcal/mol|
|  sn= 4 | S(rot)=      -0.00236690 Eh     -1.49 kcal/mol|
|  sn= 5 | S(rot)=      -0.00257758 Eh     -1.62 kcal/mol|
|  sn= 6 | S(rot)=      -0.00274973 Eh     -1.73 kcal/mol|
|  sn= 7 | S(rot)=      -0.00289527 Eh     -1.82 kcal/mol|
|  sn= 8 | S(rot)=      -0.00302135 Eh     -1.90 kcal/mol|
|  sn= 9 | S(rot)=      -0.00313256 Eh     -1.97 kcal/mol|
|  sn=10 | S(rot)=      -0.00323204 Eh     -2.03 kcal/mol|
|  sn=11 | S(rot)=      -0.00332203 Eh     -2.08 kcal/mol|
|  sn=12 | S(rot)=      -0.00340418 Eh     -2.14 kcal/mol|
 linear molecules ---------------------------------------
|  Dinfh | S(rot)=       0.00623430 Eh      3.91 kcal/mol|
|  Cinfv | S(rot)=       0.00688875 Eh      4.32 kcal/mol|
 --------------------------------------------------------


-------------------
GIBBS FREE ENERGY
-------------------

The Gibbs free energy is G = H - T*S

Total enthalpy                    ...   -188.24158023 Eh 
Total entropy correction          ...     -0.02434543 Eh    -15.28 kcal/mol
-----------------------------------------------------------------------
Final Gibbs free energy         ...   -188.26592566 Eh

For completeness - the Gibbs free energy minus the electronic energy
G-E(el)                           ...     -0.00932636 Eh     -5.85 kcal/mol


The first frequency considered to be a vibration is 5
The total number of vibrations considered is 4


--------------------------
THERMOCHEMISTRY AT 298.15K
--------------------------

Temperature         ...   298.15 K
Pressure            ...     1.00 atm
Total Mass          ...    44.01 AMU
Quasi RRHO          ...     True
Cut-Off Frequency   ...     1.00 cm^-1
The molecule is recognized as being linear

Throughout the following assumptions are being made:
  (1) The electronic state is orbitally nondegenerate
  (2) There are no thermally accessible electronically excited states
  (3) Hindered rotations indicated by low frequency modes are not
      treated as such but are treated as vibrations and this may
      cause some error
  (4) All equations used are the standard statistical mechanics
      equations for an ideal gas
  (5) All vibrations are strictly harmonic

freq.     622.46  E(vib)   ...       0.09 
freq.     624.16  E(vib)   ...       0.09 
freq.    1339.45  E(vib)   ...       0.01 
freq.    2422.18  E(vib)   ...       0.00 

------------
INNER ENERGY
------------

The inner energy is: U= E(el) + E(ZPE) + E(vib) + E(rot) + E(trans)
    E(el)   - is the total energy from the electronic structure calculation
              = E(kin-el) + E(nuc-el) + E(el-el) + E(nuc-nuc)
    E(ZPE)  - the the zero temperature vibrational energy from the frequency calculation
    E(vib)  - the the finite temperature correction to E(ZPE) due to population
              of excited vibrational states
    E(rot)  - is the rotational thermal energy
    E(trans)- is the translational thermal energy

Summary of contributions to the inner energy U:
Electronic energy                ...   -188.25659930 Eh
Zero point energy                ...      0.01140961 Eh       7.16 kcal/mol
Thermal vibrational correction   ...      0.00030480 Eh       0.19 kcal/mol
Thermal rotational correction    ...      0.00094418 Eh       0.59 kcal/mol
Thermal translational correction ...      0.00141627 Eh       0.89 kcal/mol
-----------------------------------------------------------------------
Total thermal energy                   -188.24252444 Eh


Summary of corrections to the electronic energy:
(perhaps to be used in another calculation)
Total thermal correction                  0.00266525 Eh       1.67 kcal/mol
Non-thermal (ZPE) correction              0.01140961 Eh       7.16 kcal/mol
-----------------------------------------------------------------------
Total correction                          0.01407486 Eh       8.83 kcal/mol


--------
ENTHALPY
--------

The enthalpy is H = U + kB*T
                kB is Boltzmann's constant
Total thermal energy              ...   -188.24252444 Eh 
Thermal Enthalpy correction       ...      0.00094421 Eh       0.59 kcal/mol
-----------------------------------------------------------------------
Total Enthalpy                    ...   -188.24158023 Eh


Note: Rotational entropy computed according to Herzberg 
Infrared and Raman Spectra, Chapter V,1, Van Nostrand Reinhold, 1945 
Point Group:  D(inf)h, Symmetry Number:   2  
Rotational constants in cm-1:     0.000000     0.382051     0.382051 

Vibrational entropy computed according to the QRRHO of S. Grimme
Chem.Eur.J. 2012 18 9955 using a reference frequency of 100.0 cm-1


-------
ENTROPY
-------

The entropy contributions are T*S = T*(S(el)+S(vib)+S(rot)+S(trans))
     S(el)   - electronic entropy
     S(vib)  - vibrational entropy
     S(rot)  - rotational entropy
     S(trans)- translational entropy
The entropies will be listed as multiplied by the temperature to get
units of energy

Electronic entropy                ...      0.00000000 Eh      0.00 kcal/mol
Vibrational entropy               ...      0.00040233 Eh      0.25 kcal/mol
Rotational entropy                ...      0.00623430 Eh      3.91 kcal/mol
Translational entropy             ...      0.01770880 Eh     11.11 kcal/mol
-----------------------------------------------------------------------
Final entropy term                ...      0.02434543 Eh     15.28 kcal/mol

In case the symmetry of your molecule has not been determined correctly
or in case you have a reason to use a different symmetry number we print 
out the resulting rotational entropy values for sn=1,12:

 non-linear molecules -----------------------------------
|  sn= 1 | S(rot)=      -0.00105798 Eh     -0.66 kcal/mol|
|  sn= 2 | S(rot)=      -0.00171244 Eh     -1.07 kcal/mol|
|  sn= 3 | S(rot)=      -0.00209527 Eh     -1.31 kcal/mol|
|  sn= 4 | S(rot)=      -0.00236690 Eh     -1.49 kcal/mol|
|  sn= 5 | S(rot)=      -0.00257758 Eh     -1.62 kcal/mol|
|  sn= 6 | S(rot)=      -0.00274973 Eh     -1.73 kcal/mol|
|  sn= 7 | S(rot)=      -0.00289527 Eh     -1.82 kcal/mol|
|  sn= 8 | S(rot)=      -0.00302135 Eh     -1.90 kcal/mol|
|  sn= 9 | S(rot)=      -0.00313256 Eh     -1.97 kcal/mol|
|  sn=10 | S(rot)=      -0.00323204 Eh     -2.03 kcal/mol|
|  sn=11 | S(rot)=      -0.00332203 Eh     -2.08 kcal/mol|
|  sn=12 | S(rot)=      -0.00340418 Eh     -2.14 kcal/mol|
 linear molecules ---------------------------------------
|  Dinfh | S(rot)=       0.00623430 Eh      3.91 kcal/mol|
|  Cinfv | S(rot)=       0.00688875 Eh      4.32 kcal/mol|
 --------------------------------------------------------


-------------------
GIBBS FREE ENERGY
-------------------

The Gibbs free energy is G = H - T*S

Total enthalpy                    ...   -188.24158023 Eh 
Total entropy correction          ...     -0.02434543 Eh    -15.28 kcal/mol
-----------------------------------------------------------------------
Final Gibbs free energy         ...   -188.26592566 Eh

For completeness - the Gibbs free energy minus the electronic energy
G-E(el)                           ...     -0.00932636 Eh     -5.85 kcal/mol



--------------------------------
SUGGESTED CITATIONS FOR THIS RUN
--------------------------------

Below you find a list of papers that are relevant to this ORCA run
We neither can nor want to force you to cite these papers, but we appreciate if you do
You receive ORCA, which is the product of decades of hard work by many enthusiastic individuals, for free
The only thing we kindly ask in return is that you cite our papers,
We deeply appreciate it, if you show your appreciation for ORCA by not just citing the generic ORCA reference.

Please note that relegating all ORCA citations to the supporting information does *not* help us.
SI sections are not indexed - citations you put there will not count into any citation statistics
But we need these citations in order to attract the funding resources that allow us to do what we are doing

Therefore, if you are a happy ORCA user, please consider citing a few of the papers listed below in the main body of your paper

In addition to the list printed below, the program has created the file input.bibtex that contains the list in bibtex format
You can import this file easily into all common literature databanks and citation aid programs


List of essential papers. We consider these as the minimum necessary citations

  1. Neese, F.
     Software update: the ORCA program system, version 6.0
     WIRES Comput. Molec. Sci. 2025 15(1), e70019
     doi.org/10.1002/wcms.7019

List of papers to cite with high priority. The work reported in these papers was absolutely
necessary for this run to complete.
Our perspective: the developers of density functionals and basis sets usually get cited in chemistry papers
Good! But without the algorithms to do something with them, the functionals or basis sets would not do anything.
Hence, in our opinion, the algorithm design and method developments papers are equally worthy of getting cited

  1. Neese, F.
     An improvement of the resolution of the identity approximation for the formation of the Coulomb matrix
     J. Comp. Chem. 2003 24(14), 1740-1747
     doi.org/10.1002/jcc.10318
  2. Bannwarth, C.; Caldeweyher, E.; Ehlert, S.; Hansen, A.; Pracht, P.; Seibert, J.; Spicher, S.; Grimme, S.
     Extended tight-binding quantum chemistry methods
     WIRES Comput. Molec. Sci. 2020 11(2), e1493
     doi.org/10.1002/wcms.1493
  3. Neese, F.
     The SHARK Integral Generation and Digestion System
     J. Comp. Chem. 2022 44(3), 381
     doi.org/10.1002/jcc.26942

List of suggested additional citations. These are papers that are important in the 'surrounding' of 
of this run, or papers that preceded the highly important papers. If you like your results we are grateful for a citation.

  1. Neese, F.
     The ORCA program system
     WIRES Comput. Molec. Sci. 2012 2(1), 73-78
     doi.org/10.1002/wcms.81
  2. Neese, F.
     Software update: the ORCA program system, version 4.0
     WIRES Comput. Molec. Sci. 2018 8(1), 1-6
     doi.org/10.1002/wcms.1327
  3. Neese, F.; Wennmohs, F.; Becker, U.; Riplinger, C.
     The ORCA quantum chemistry program package
     J. Chem. Phys. 2020 152(22), 224108
     doi.org/10.1063/5.0004608
  4. Neese, F.
     Software update: The ORCA program system—Version 5.0
     WIRES Comput. Molec. Sci. 2022 12(1), e1606
     doi.org/10.1002/wcms.1606

List of optional additional citations

  1. Neese, F.
     Approximate second-order SCF convergence for spin unrestricted wavefunctions
     Chem. Phys. Lett. 2000 325(1-3), 93-98
     doi.org/10.1016/s0009-2614(00)00662-x

Timings for individual modules:

Sum of individual times          ...       33.334 sec (=   0.556 min)
Startup calculation              ...        1.003 sec (=   0.017 min)   3.0 %
SCF iterations                   ...        5.347 sec (=   0.089 min)  16.0 %
SCF Response                     ...        0.714 sec (=   0.012 min)   2.1 %
Property calculations            ...        0.207 sec (=   0.003 min)   0.6 %
SCF Gradient evaluation          ...        1.150 sec (=   0.019 min)   3.4 %
Numerical frequency calculation  ...       22.468 sec (=   0.374 min)  67.4 %
XTB module                       ...        2.445 sec (=   0.041 min)   7.3 %
                             ****ORCA TERMINATED NORMALLY****
TOTAL RUN TIME: 0 days 0 hours 0 minutes 29 seconds 318 msec
