
                                 *****************
                                 * O   R   C   A *
                                 *****************

                                            #,                                       
                                            ###                                      
                                            ####                                     
                                            #####                                    
                                            ######                                   
                                           ########,                                 
                                     ,,################,,,,,                         
                               ,,#################################,,                 
                          ,,##########################################,,             
                       ,#########################################, ''#####,          
                    ,#############################################,,   '####,        
                  ,##################################################,,,,####,       
                ,###########''''           ''''###############################       
              ,#####''   ,,,,##########,,,,          '''####'''          '####       
            ,##' ,,,,###########################,,,                        '##       
           ' ,,###''''                  '''############,,,                           
         ,,##''                                '''############,,,,        ,,,,,,###''
      ,#''                                            '''#######################'''  
     '                                                          ''''####''''         
             ,#######,   #######,   ,#######,      ##                                
            ,#'     '#,  ##    ##  ,#'     '#,    #''#        ,####,   ,####,        
            ##       ##  ##   ,#'  ##            #'  '#       #'       #'  '#        
            ##       ##  #######   ##           ,######,      #####,   #    #        
            '#,     ,#'  ##    ##  '#,     ,#' ,#      #,     #,   #   #,  ,#        
             '#######'   ##     ##  '#######'  #'      '#     '####' # '####'        



                #########################################################
                #                        -***-                          #
                #          Department of theory and spectroscopy        #
                #                                                       #
                #                      Frank Neese                      #
                #                                                       #
                #     Directorship, Architecture, Infrastructure        #
                #                    SHARK, DRIVERS                     #
                #        Core code/Algorithms in most modules           #
                #                                                       #
                #        Max Planck Institute fuer Kohlenforschung      #
                #                Kaiser Wilhelm Platz 1                 #
                #                 D-45470 Muelheim/Ruhr                 #
                #                      Germany                          #
                #                                                       #
                #                  All rights reserved                  #
                #                        -***-                          #
                #########################################################


                         Program Version 6.0.1  -  RELEASE   -


 With contributions from (in alphabetic order):
[Max-Planck-Institut fuer Kohlenforschung]                               
  Daniel Aravena         : Magnetic Suceptibility                        
  Michael Atanasov       : Ab Initio Ligand Field Theory (pilot matlab implementation)
  Alexander A. Auer      : GIAO ZORA, VPT2 properties, NMR spectrum      
  Ute Becker             : All parallelization in ORCA, NUMFREQ, NUMCALC 
  Giovanni Bistoni       : ED, misc. LED, open-shell LED, HFLD           
  Martin Brehm           : Molecular dynamics                            
  Dmytro Bykov           : pre 5.0 version of the SCF Hessian            
  Marcos Casanova-Páez   : Triplet and SCS-CIS(D). UHF-(DLPNO)-IP/EA/STEOM-CCSD. UHF-CVS-IP/STEOM-CCSD   
  Vijay G. Chilkuri      : MRCI spin determinant printing, contributions to CSF-ICE 
  Pauline Colinet        : FMM embedding                                 
  Dipayan Datta          : RHF DLPNO-CCSD density                        
  Achintya Kumar Dutta   : EOM-CC, STEOM-CC                              
  Nicolas Foglia         : Exact transition moments, OPA infrastructure, MCD improvements    
  Dmitry Ganyushin       : Spin-Orbit,Spin-Spin,Magnetic field MRCI      
  Miquel Garcia-Rates    : C-PCM and meta-GGA Hessian, CCSD/C-PCM, Gaussian charge scheme 
  Tiago L. C. Gouveia    : GS-ROHF, GS-ROCIS                             
  Yang Guo               : DLPNO-NEVPT2, F12-NEVPT2, CIM, IAO-localization        
  Andreas Hansen         : Spin unrestricted coupled pair/coupled cluster methods 
  Ingolf Harden          : AUTO-CI MPn and infrastructure                
  Benjamin Helmich-Paris : MC-RPA, TRAH-(SCF,CASSCF), AVAS, COSX integrals, SCF dyn. polar. 
  Lee Huntington         : MR-EOM, pCC                                   
  Robert Izsak           : Overlap fitted RIJCOSX, COSX-SCS-MP3, EOM     
  Riya Kayal             : Wick's Theorem for AUTO-CI, AUTO-CI UHF-CCSDT 
  Emily Kempfer          : AUTO-CI, RHF CISDT and CCSDT                  
  Christian Kollmar      : KDIIS, OOCD, Brueckner-CCSD(T), CCSD density, CASPT2, CASPT2-K, improved NEVPT2 
  Axel Koslowski         : Symmetry handling                             
  Simone Kossmann        : meta-GGA functionals, TD-DFT gradient, OOMP2, (MP2 Hessian; deprecated post 5.0) 
  Lucas Lang             : DCDCAS                                        
  Marvin Lechner         : AUTO-CI (C++ implementation), FIC-MRCC        
  Spencer Leger          : CASSCF response                               
  Dagmar Lenk            : GEPOL surface, SMD, ORCA-2-JSON               
  Dimitrios Liakos       : Extrapolation schemes; Compound Job, initial MDCI parallelization 
  Dimitrios Manganas     : Further ROCIS development; embedding schemes. LFT, Crystal Embedding 
  Dimitrios Pantazis     : SARC Basis sets                               
  Anastasios Papadopoulos: AUTO-CI, single reference methods and gradients 
  Taras Petrenko         : pre 6.0 DFT Hessian and TD-DFT gradient, (ASA, deprecated), ECA, 1-Electron XAS/XES, NRVS 
  Peter Pinski           : DLPNO-MP2, DLPNO-MP2 Gradient                 
  Christoph Reimann      : Effective Core Potentials                     
  Marius Retegan         : Local ZFS, SOC                                
  Christoph Riplinger    : Optimizer, TS searches, QM/MM, DLPNO-CCSD(T), (RO)-DLPNO pert. Triples 
  Michael Roemelt        : Original ROCIS implementation                 
  Masaaki Saitow         : Open-shell DLPNO-CCSD energy and density      
  Barbara Sandhoefer     : DKH picture change effects                    
  Kantharuban Sivalingam : CASSCF convergence/infrastructure, NEVPT2 and variants, FIC-MRCI 
  Bernardo de Souza      : ESD, SOC TD-DFT                               
  Georgi L. Stoychev     : AutoAux, RI-MP2 NMR, DLPNO-MP2 response, X2C  
  Van Anh Tran           : RI-MP2 g-tensors                              
  Willem Van den Heuvel  : Paramagnetic NMR                              
  Zikuan Wang            : NOTCH, Electric field optimization            
  Frank Wennmohs         : Technical directorship and infrastructure     
  Hang Xu                : AUTO-CI-Response properties                   
                                                                         
[FACCTs GmbH]                                                            
  Markus Bursch, Miquel Garcia-Rates, Christoph Riplinger, Bernardo de Souza, Georgi L. Stoychev 
                                                                 
  APM, Basis sets (HGBS, AHGBS, def-TZVP (Ac-Lr), def2-XVPD (La-Lu)), CI-OPT, improved COSX, DLPNO-Multilevel,           
  DOCKER, DRACO, updates on ESD, GOAT, IRC, LR-CPCM, MBIS, meta-GGA TD-DFT gradient, ML-optimized integration grids, 
  MM, NACMEs, nearIR, NEB, NEB-TS, NL-DFT gradient (VV10), 2- and 3-layer-ONIOM, interface openCOSMO-RS, QMMM,   
  Crystal-QMMM, SF, symmetry and pop. for TD-DFT, r2SCAN hybrids, SOLVATOR                                   
                                                                         
[Other institutions]                                                     
  V. Asgeirsson          : NEB                                           
  Christoph Bannwarth    : sTDA-DFT, sTD-DFT, PBEh-3c, B97-3c, D3        
  Sebastian Ehlert       : rSCAN, r2SCAN, r2SCAN-3c, D4, dhf basis sets  
  Marvin Friede          : D4 for Fr, Ra, Ac-Lr                          
  Lars Goerigk           : TD-DFT with DH, B97 family of functionals     
  Stefan Grimme          : VdW corrections, initial TS optimization, DFT functionals, gCP, sTDA/sTD-DF 
  Waldemar Hujo          : DFT-NL                                        
  H. Jonsson             : NEB                                           
  Holger Kruse           : gCP                                           
  Marcel Mueller         : wB97X-3c, vDZP basis set                      
  Hagen Neugebauer       : wr2SCAN                                       
  Tobias Risthaus        : range-separated hybrid DFT                    
  Lukas Wittmann         : regularized MP2, r2SCAN double-hybrids, wr2SCAN        
                                                                         
We gratefully acknowledge several colleagues who have allowed us to      
interface, adapt or use parts of their codes:                            
  Ed Valeev, F. Pavosevic, A. Kumar             : LibInt (2-el integral package), F12 methods 
  Garnet Chan, S. Sharma, J. Yang, R. Olivares  : DMRG                   
  Ulf Ekstrom                                   : XCFun DFT Library      
  Mihaly Kallay                                 : mrcc  (arbitrary order and MRCC methods)
  Frank Weinhold                                : gennbo (NPA and NBO analysis)           
  Simon Mueller                                 : openCOSMO-RS                            
  Christopher J. Cramer and Donald G. Truhlar   : smd solvation model                     
  S Lehtola, MJT Oliveira, MAL Marques          : LibXC Library                           
  Liviu Ungur et al                             : ANISO software                          


 Your calculation uses the libint2 library for the computation of 2-el integrals
 For citations please refer to: http://libint.valeyev.net

 Your ORCA version has been built with support for libXC version: 6.2.2
 For citations please refer to: https://libxc.gitlab.io

 This ORCA versions uses:
   CBLAS   interface :  Fast vector & matrix operations
   LAPACKE interface :  Fast linear algebra routines
   SCALAPACK package :  Parallel linear algebra routines
   Shared memory     :  Shared parallel matrices
   BLAS/LAPACK       :  OpenBLAS 0.3.27  USE64BITINT DYNAMIC_ARCH NO_AFFINITY Haswell SINGLE_THREADED
        Core in use  :  Haswell
   Copyright (c) 2011-2014, The OpenBLAS Project


NOTE: MaxCore=350 MB was set to SCF,MP2,MDCI,CIPSI,MRCI and CIS
      => If you want to overwrite this, your respective input block should be placed after the MaxCore statement
================================================================================

----- Orbital basis set information -----
Your calculation utilizes the basis: def2-SVP
   F. Weigend and R. Ahlrichs, Phys. Chem. Chem. Phys. 7, 3297 (2005).

----- AuxJ basis set information -----
Your calculation utilizes the auxiliary basis: def2/J
   F. Weigend, Phys. Chem. Chem. Phys. 8, 1057 (2006).

================================================================================
                                        WARNINGS
                       Please study these warnings very carefully!
================================================================================



WARNING: Found flag for RIJCOSX approximation but no HF exchange needed!
  ===> : RIJCOSX  will be disabled and Split-RI-J is turned on

WARNING: The environment variable RSH_COMMAND is not set!
  ===> : All Displacements for the Numerical Hessian or Gradient calculation
         will be started on localhost

WARNING: Geometry Optimization
  ===> : Switching off AutoStart
         For restart on a previous wavefunction, please use MOREAD

WARNING: Found frequency calculation in combination with XTB calculation
  ===> : Need to redirect dipole moment calculation to properties.out


================================================================================
                                       INPUT FILE
================================================================================
NAME = CO2_IR_2nd_order.inp
|  1> !PBE def2-SVP RIJCOSX def2/J TightOPT NearIR NumFreq
|  2> 
|  3> %elprop
|  4> 	Polar 1
|  5> end
|  6> 
|  7> %pal
|  8> 	nprocs 4
|  9> end
| 10> 
| 11> %maxcore 350
| 12> 
| 13> *xyz 0 1
| 14> C       -5.73540       -0.75177       -0.00000
| 15> O       -5.48110        0.41725       -0.00000
| 16> O       -5.98974       -1.92086       -0.00000
| 17> *
| 18> 
| 19> 
| 20> 
| 21>                          ****END OF INPUT****
================================================================================

                       *****************************
                       * Geometry Optimization Run *
                       *****************************

Geometry optimization settings:
Update method            Update   .... BFGS
Choice of coordinates    CoordSys .... (2022) Redundant Internals
Initial Hessian          InHess   .... Almloef's Model
Max. no of cycles        MaxIter  .... 50

Convergence Tolerances:
Energy Change            TolE     ....  1.0000e-06 Eh
Max. Gradient            TolMAXG  ....  1.0000e-04 Eh/bohr
RMS Gradient             TolRMSG  ....  3.0000e-05 Eh/bohr
Max. Displacement        TolMAXD  ....  1.0000e-03 bohr
RMS Displacement         TolRMSD  ....  6.0000e-04 bohr
Strict Convergence                .... False

------------------------------------------------------------------------------
                        ORCA OPTIMIZATION COORDINATE SETUP
------------------------------------------------------------------------------

The optimization will be done in redundant internal coordinates (2022)
Making redundant internal coordinates   ...  (2022 redundants) done
Evaluating the initial hessian          ...  (Almloef) done
Evaluating the coordinates              ...  done
Calculating the B-matrix                .... done
Calculating the G-matrix                .... done
Diagonalizing the G-matrix              .... done
The first mode is                       ....    0
The number of degrees of freedom        ....    4

    -----------------------------------------------------------------
                    Redundant Internal Coordinates


    -----------------------------------------------------------------
         Definition                    Initial Value    Approx d2E/dq
    -----------------------------------------------------------------
      1. B(O   1,C   0)                  1.1964         1.139768   
      2. B(O   2,C   0)                  1.1964         1.139446   
      3. L(O   1,C   0,O   2, 2)       180.0000         0.536091   
      4. L(O   1,C   0,O   2, 1)       180.0012         0.536091   
    -----------------------------------------------------------------

Number of atoms                         .... 3
Number of degrees of freedom            .... 4


         *************************************************************
         *                GEOMETRY OPTIMIZATION CYCLE   1            *
         *************************************************************
---------------------------------
CARTESIAN COORDINATES (ANGSTROEM)
---------------------------------
  C     -5.735400   -0.751770   -0.000000
  O     -5.481100    0.417250   -0.000000
  O     -5.989740   -1.920860   -0.000000

----------------------------
CARTESIAN COORDINATES (A.U.)
----------------------------
  NO LB      ZA    FRAG     MASS         X           Y           Z
   0 C     6.0000    0    12.011  -10.838335   -1.420639   -0.000000
   1 O     8.0000    0    15.999  -10.357778    0.788488   -0.000000
   2 O     8.0000    0    15.999  -11.318968   -3.629899   -0.000000

--------------------------------
INTERNAL COORDINATES (ANGSTROEM)
--------------------------------
 C      0   0   0     0.000000000000     0.00000000     0.00000000
 O      1   0   0     1.196359582400     0.00000000     0.00000000
 O      1   2   0     1.196436485443   179.99884078     0.00000000

---------------------------
INTERNAL COORDINATES (A.U.)
---------------------------
 C      0   0   0     0.000000000000     0.00000000     0.00000000
 O      1   0   0     2.260791968428     0.00000000     0.00000000
 O      1   2   0     2.260937294119   179.99884078     0.00000000

---------------------
BASIS SET INFORMATION
---------------------
There are 2 groups of distinct atoms

 Group   1 Type C   : 7s4p1d contracted to 3s2p1d pattern {511/31/1}
 Group   2 Type O   : 7s4p1d contracted to 3s2p1d pattern {511/31/1}

Atom   0C    basis set group =>   1
Atom   1O    basis set group =>   2
Atom   2O    basis set group =>   2
---------------------------------
AUXILIARY/J BASIS SET INFORMATION
---------------------------------
There are 2 groups of distinct atoms

 Group   1 Type C   : 12s5p4d2f1g contracted to 6s4p3d1f1g pattern {711111/2111/211/2/1}
 Group   2 Type O   : 12s5p4d2f1g contracted to 6s4p3d1f1g pattern {711111/2111/211/2/1}

Atom   0C    basis set group =>   1
Atom   1O    basis set group =>   2
Atom   2O    basis set group =>   2


           ************************************************************
           *        Program running with 4 parallel MPI-processes     *
           *              working on a common directory               *
           ************************************************************
------------------------------------------------------------------------------
                             ORCA STARTUP CALCULATIONS
                           -- RI-GTO INTEGRALS CHOSEN --
------------------------------------------------------------------------------
------------------------------------------------------------------------------
                   ___                                                        
                  /   \      - P O W E R E D   B Y -                         
                 /     \                                                     
                 |  |  |   _    _      __       _____    __    __             
                 |  |  |  | |  | |    /  \     |  _  \  |  |  /  |          
                  \  \/   | |  | |   /    \    | | | |  |  | /  /          
                 / \  \   | |__| |  /  /\  \   | |_| |  |  |/  /          
                |  |  |   |  __  | /  /__\  \  |    /   |      \           
                |  |  |   | |  | | |   __   |  |    \   |  |\   \          
                \     /   | |  | | |  |  |  |  | |\  \  |  | \   \       
                 \___/    |_|  |_| |__|  |__|  |_| \__\ |__|  \__/        
                                                                              
                      - O R C A' S   B I G   F R I E N D -                    
                                      &                                       
                       - I N T E G R A L  F E E D E R -                       
                                                                              
 v1 FN, 2020, v2 2021, v3 2022-2024                                           
------------------------------------------------------------------------------


----------------------
SHARK INTEGRAL PACKAGE
----------------------

Number of atoms                             ...      3
Number of basis functions                   ...     42
Number of shells                            ...     18
Maximum angular momentum                    ...      2
Integral batch strategy                     ... SHARK/LIBINT Hybrid
RI-J (if used) integral strategy            ... SPLIT-RIJ (Revised 2003 algorithm where possible)
Printlevel                                  ...      1
Contraction scheme used                     ... SEGMENTED contraction
Prescreening option                         ... SCHWARTZ
   Thresh                                   ... 1.000e-12
   Tcut                                     ... 1.000e-14
   Tpresel                                  ... 1.000e-14 
Coulomb Range Separation                    ... NOT USED
Exchange Range Separation                   ... NOT USED
Multipole approximations                    ... NOT USED
Finite Nucleus Model                        ... NOT USED
CABS basis                                  ... NOT available
Auxiliary Coulomb fitting basis             ... AVAILABLE
   # of basis functions in Aux-J            ...    147
   # of shells in Aux-J                     ...     45
   Maximum angular momentum in Aux-J        ...      4
Auxiliary J/K fitting basis                 ... NOT available
Auxiliary Correlation fitting basis         ... NOT available
Auxiliary 'external' fitting basis          ... NOT available

Checking pre-screening integrals            ... done (  0.0 sec) Dimension = 18
Check shell pair data                       ... done (  0.0 sec)
Shell pair information
Shell pair cut-off parameter TPreSel        ...   1.0e-14
Total number of shell pairs                 ...       171
Shell pairs after pre-screening             ...       170
Total number of primitive shell pairs       ...       705
Primitive shell pairs kept                  ...       612
          la=0 lb=0:     44 shell pairs
          la=1 lb=0:     54 shell pairs
          la=1 lb=1:     21 shell pairs
          la=2 lb=0:     27 shell pairs
          la=2 lb=1:     18 shell pairs
          la=2 lb=2:      6 shell pairs

Calculating one electron integrals          ... done (  0.0 sec)
Calculating RI/J V-Matrix + Cholesky decomp.... done (  0.0 sec)
Calculating Nuclear repulsion               ... done (  0.0 sec) ENN=     56.615508213197 Eh

Diagonalization of the overlap matrix:
Smallest eigenvalue                        ... 9.338e-03
Time for diagonalization                   ...    0.000 sec
Threshold for overlap eigenvalues          ... 1.000e-07
Number of eigenvalues below threshold      ... 0
Time for construction of square roots      ...    0.000 sec
Total time needed                          ...    0.001 sec

-------------------
DFT GRID GENERATION
-------------------

General Integration Accuracy     IntAcc      ... 4.388
Radial Grid Type                 RadialGrid  ... OptM3 with GC (2021)
Angular Grid (max. ang.)         AngularGrid ... 4 (Lebedev-302)
Angular grid pruning method      GridPruning ... 4 (adaptive)
Weight generation scheme         WeightScheme... mBecke (2022)
Basis function cutoff            BFCut       ... 1.0000e-12
Integration weight cutoff        WCut        ... 1.0000e-14
Partially contracted basis set               ... off
Rotationally invariant grid construction     ... off
Angular grids for H and He will be reduced by one unit

Total number of grid points                  ...    18366
Total number of batches                      ...      288
Average number of points per batch           ...       63
Average number of grid points per atom       ...     6122
Initializing property integral containers    ... done (  0.0 sec)

SHARK setup successfully completed in   0.1 seconds

Maximum memory used throughout the entire STARTUP-calculation: 8.7 MB


           ************************************************************
           *        Program running with 4 parallel MPI-processes     *
           *              working on a common directory               *
           ************************************************************
-------------------------------------------------------------------------------
                                 ORCA GUESS
                   Start orbitals & Density for SCF / CASSCF
-------------------------------------------------------------------------------

------------
SCF SETTINGS
------------
Hamiltonian:
 Density Functional     Method          .... DFT(GTOs)
 Exchange Functional    Exchange        .... PBE
   PBE kappa parameter   XKappa         ....  0.804000
   PBE mue parameter    XMuePBE         ....  0.219520
 Correlation Functional Correlation     .... PBE
   PBE beta parameter  CBetaPBE         ....  0.066725
 LDA part of GGA corr.  LDAOpt          .... PW91-LDA
 Gradients option       PostSCFGGA      .... off
   NL short-range parameter             ....  6.400000
 RI-approximation to the Coulomb term is turned on
   Number of AuxJ basis functions       .... 147


General Settings:
 Integral files         IntName         .... CO2_IR_2nd_order
 Hartree-Fock type      HFTyp           .... RHF
 Total Charge           Charge          ....    0
 Multiplicity           Mult            ....    1
 Number of Electrons    NEL             ....   22
 Basis Dimension        Dim             ....   42
 Nuclear Repulsion      ENuc            ....     56.6155082132 Eh

Convergence Acceleration:
 AO-DIIS                CNVDIIS         .... on
   Start iteration      DIISMaxIt       ....    12
   Startup error        DIISStart       ....  0.200000
   # of expansion vecs  DIISMaxEq       ....     5
   Bias factor          DIISBfac        ....   1.050
   Max. coefficient     DIISMaxC        ....  10.000
 MO-DIIS                CNVKDIIS        .... off
 Trust-Rad. Augm. Hess. CNVTRAH         .... auto
   Auto Start mean grad. ratio tolernc. ....  1.125000
   Auto Start start iteration           ....    50
   Auto Start num. interpolation iter.  ....    10
   Max. Number of Micro iterations      ....    24
   Max. Number of Macro iterations      .... Maxiter - #DIIS iter
   Number of Davidson start vectors     ....     2
   Converg. threshold    (grad. norm)   ....   2.000e-06
   Grad. Scal. Fac. for Micro threshold ....   0.100
   Minimum threshold for Micro iter.    ....   1.000e-02
   NR start threshold (gradient norm)   ....   1.000e-04
   Initial trust radius                 ....   0.400
   Minimum AH scaling param. (alpha)    ....   1.000
   Maximum AH scaling param. (alpha)    .... 1000.000
   Quad. conv. algorithm                .... NR
   White noise on init. David. guess    .... on
   Maximum white noise                  ....   0.010
   Pseudo random numbers                .... off
   Inactive MOs                         .... canonical
   Orbital update algorithm             .... Taylor
   Preconditioner                       .... Diag
   Full preconditioner red. dimension   ....   250
 SOSCF                  CNVSOSCF        .... on
   Start iteration      SOSCFMaxIt      ....   150
   Startup grad/error   SOSCFStart      ....  0.003300
   Hessian update       SOSCFHessUp     .... L-BFGS
 Level Shifting         CNVShift        .... on
   Level shift para.    LevelShift      ....    0.2500
   Turn off err/grad.   ShiftErr        ....    0.0010
 Zerner damping         CNVZerner       .... off
 Static damping         CNVDamp         .... on
   Fraction old density DampFac         ....    0.7000
   Max. Damping (<1)    DampMax         ....    0.9800
   Min. Damping (>=0)   DampMin         ....    0.0000
   Turn off err/grad.   DampErr         ....    0.1000

SCF Procedure:
 Maximum # iterations   MaxIter         ....   125
 SCF integral mode      SCFMode         .... Direct
   Integral package                     .... SHARK and LIBINT hybrid scheme
 Reset frequency        DirectResetFreq ....    20
 Integral Threshold     Thresh          ....  1.000e-12 Eh
 Primitive CutOff       TCut            ....  1.000e-14 Eh

Convergence Tolerance:
 Convergence Check Mode ConvCheckMode   .... Total+1el-Energy
 Convergence forced     ConvForced      .... 0
 Energy Change          TolE            ....  1.000e-09 Eh
 1-El. energy change                    ....  1.000e-06 Eh
 Orbital Gradient       TolG            ....  2.000e-06
 Orbital Rotation angle TolX            ....  2.000e-06
 DIIS Error             TolErr          ....  1.000e-08

------------------------------
INITIAL GUESS: MODEL POTENTIAL
------------------------------
Loading Hartree-Fock densities                     ... done
Calculating cut-offs                               ... done
Initializing the effective Hamiltonian             ... done
Setting up the integral package (SHARK)            ... done
Starting the Coulomb interaction                   ... done (   0.0 sec)
Making the grid                                    ... done (   0.0 sec)
Mapping shells                                     ... done
Starting the XC term evaluation                    ... done (   0.0 sec)
  promolecular density results
     # of electrons  =     22.000057816
     EX              =    -21.354030293
     EC              =     -0.728253683
     EX+EC           =    -22.082283975
Transforming the Hamiltonian                       ... done (   0.0 sec)
Diagonalizing the Hamiltonian                      ... done (   0.0 sec)
Back transforming the eigenvectors                 ... done (   0.0 sec)
Now organizing SCF variables                       ... done
                      ------------------
                      INITIAL GUESS DONE (   0.0 sec)
                      ------------------
             **** ENERGY FILE WAS UPDATED (CO2_IR_2nd_order.en.tmp) ****
Finished Guess after   0.1 sec
Maximum memory used throughout the entire GUESS-calculation: 5.6 MB


           ************************************************************
           *        Program running with 4 parallel MPI-processes     *
           *              working on a common directory               *
           ************************************************************

-------------------------------------------------------------------------------------------
                                      ORCA LEAN-SCF
                              memory conserving SCF solver
-------------------------------------------------------------------------------------------

----------------------------------------D-I-I-S--------------------------------------------
Iteration    Energy (Eh)           Delta-E    RMSDP     MaxDP     DIISErr   Damp  Time(sec)
-------------------------------------------------------------------------------------------
               ***  Starting incremental Fock matrix formation  ***
    1    -188.1442588206157325     0.00e+00  9.73e-03  1.09e-01  2.11e-01  0.700   0.0
    2    -188.2047537164052073    -6.05e-02  4.25e-03  3.82e-02  5.86e-02  0.700   0.0
                               ***Turning on AO-DIIS***
    3    -188.2165296952915128    -1.18e-02  1.13e-03  7.66e-03  2.00e-02  0.700   0.0
    4    -188.2267155339733620    -1.02e-02  2.13e-03  3.34e-02  2.46e-02  0.000   0.0
    5    -188.2543843287104153    -2.77e-02  6.96e-04  5.44e-03  1.30e-02  0.000   0.0
                              *** Initializing SOSCF ***
---------------------------------------S-O-S-C-F--------------------------------------
Iteration    Energy (Eh)           Delta-E    RMSDP     MaxDP     MaxGrad    Time(sec)
--------------------------------------------------------------------------------------
    6    -188.2547721952598465    -3.88e-04  1.91e-04  1.55e-03  3.29e-03     0.0
               *** Restarting incremental Fock matrix formation ***
    7    -188.2547965736795277    -2.44e-05  1.58e-04  1.45e-03  6.67e-04     0.0
    8    -188.2547914544562673     5.12e-06  1.07e-04  1.21e-03  1.24e-03     0.0
    9    -188.2547986325040767    -7.18e-06  2.39e-05  3.58e-04  8.73e-05     0.0
   10    -188.2547986338438477    -1.34e-09  1.23e-05  1.34e-04  7.69e-05     0.0
   11    -188.2547986413387662    -7.49e-09  1.63e-05  2.16e-04  9.05e-05     0.0
   12    -188.2547986557342199    -1.44e-08  9.58e-06  1.30e-04  5.28e-05     0.0
   13    -188.2547986789160746    -2.32e-08  1.16e-06  1.15e-05  8.76e-06     0.0
   14    -188.2547986794279495    -5.12e-10  1.65e-07  1.41e-06  1.86e-06     0.0
                 **** Energy Check signals convergence ****

               *****************************************************
               *                     SUCCESS                       *
               *           SCF CONVERGED AFTER  14 CYCLES          *
               *****************************************************

             **** ENERGY FILE WAS UPDATED (CO2_IR_2nd_order.en.tmp) ****

----------------
TOTAL SCF ENERGY
----------------

Total Energy       :       -188.25479867942795 Eh           -5122.67350 eV

Components:
Nuclear Repulsion  :         56.61550821319667 Eh            1540.58630 eV
Electronic Energy  :       -244.87030689262463 Eh           -6663.25980 eV
One Electron Energy:       -369.24069103095661 Eh          -10047.55001 eV
Two Electron Energy:        124.37038413833199 Eh            3384.29021 eV

Virial components:
Potential Energy   :       -375.00472789656010 Eh          -10204.39743 eV
Kinetic Energy     :        186.74992921713212 Eh            5081.72392 eV
Virial Ratio       :          2.00805820633295

DFT components:
N(Alpha)           :       10.999998581635 electrons
N(Beta)            :       10.999998581635 electrons
N(Total)           :       21.999997163270 electrons
E(X)               :      -21.541925821107 Eh       
E(C)               :       -0.741217758778 Eh       
E(XC)              :      -22.283143579885 Eh       

---------------
SCF CONVERGENCE
---------------

  Last Energy change         ...    5.1187e-10  Tolerance :   1.0000e-09
  Last MAX-Density change    ...    1.4066e-06  Tolerance :   1.0000e-08
  Last RMS-Density change    ...    1.6506e-07  Tolerance :   1.0000e-09
  Last DIIS Error            ...    3.2934e-03  Tolerance :   1.0000e-08
  Last Orbital Gradient      ...    1.8615e-06  Tolerance :   2.0000e-06
  Last Orbital Rotation      ...    1.2838e-06  Tolerance :   2.0000e-06


----------------
ORBITAL ENERGIES
----------------

  NO   OCC          E(Eh)            E(eV) 
   0   2.0000     -18.840614      -512.6792 
   1   2.0000     -18.840536      -512.6771 
   2   2.0000     -10.078064      -274.2381 
   3   2.0000      -1.038698       -28.2644 
   4   2.0000      -1.002485       -27.2790 
   5   2.0000      -0.493159       -13.4195 
   6   2.0000      -0.451658       -12.2902 
   7   2.0000      -0.449718       -12.2374 
   8   2.0000      -0.449718       -12.2374 
   9   2.0000      -0.322094        -8.7646 
  10   2.0000      -0.322094        -8.7646 
  11   0.0000      -0.022874        -0.6224 
  12   0.0000      -0.022874        -0.6224 
  13   0.0000       0.018791         0.5113 
  14   0.0000       0.323128         8.7928 
  15   0.0000       0.387621        10.5477 
  16   0.0000       0.394072        10.7232 
  17   0.0000       0.394072        10.7232 
  18   0.0000       0.672269        18.2934 
  19   0.0000       0.771989        21.0069 
  20   0.0000       0.848487        23.0885 
  21   0.0000       0.848488        23.0885 
*Only the first 10 virtual orbitals were printed.

                    ********************************
                    * MULLIKEN POPULATION ANALYSIS *
                    ********************************

-----------------------
MULLIKEN ATOMIC CHARGES
-----------------------
   0 C :    0.238575
   1 O :   -0.119239
   2 O :   -0.119335
Sum of atomic charges:    0.0000000

--------------------------------
MULLIKEN REDUCED ORBITAL CHARGES
--------------------------------
  0 C s       :     2.988172  s :     2.988172
      pz      :     0.854798  p :     2.644052
      px      :     0.858398
      py      :     0.930857
      dz2     :     0.007145  d :     0.129201
      dxz     :     0.002273
      dyz     :     0.048037
      dx2y2   :     0.026418
      dxy     :     0.045327

  1 O s       :     3.753869  s :     3.753869
      pz      :     1.541412  p :     4.344912
      px      :     1.528793
      py      :     1.274707
      dz2     :     0.002109  d :     0.020459
      dxz     :     0.000272
      dyz     :     0.005740
      dx2y2   :     0.006272
      dxy     :     0.006066

  2 O s       :     3.753931  s :     3.753931
      pz      :     1.541458  p :     4.344951
      px      :     1.528829
      py      :     1.274664
      dz2     :     0.002108  d :     0.020454
      dxz     :     0.000272
      dyz     :     0.005738
      dx2y2   :     0.006271
      dxy     :     0.006064



                     *******************************
                     * LOEWDIN POPULATION ANALYSIS *
                     *******************************

----------------------
LOEWDIN ATOMIC CHARGES
----------------------
   0 C :    0.120590
   1 O :   -0.060252
   2 O :   -0.060339

-------------------------------
LOEWDIN REDUCED ORBITAL CHARGES
-------------------------------
  0 C s       :     2.833857  s :     2.833857
      pz      :     0.846730  p :     2.765170
      px      :     0.856896
      py      :     1.061543
      dz2     :     0.020290  d :     0.280384
      dxz     :     0.004501
      dyz     :     0.095112
      dx2y2   :     0.067555
      dxy     :     0.092926

  1 O s       :     3.561659  s :     3.561659
      pz      :     1.519287  p :     4.464067
      px      :     1.515051
      py      :     1.429729
      dz2     :     0.004873  d :     0.034525
      dxz     :     0.000340
      dyz     :     0.007177
      dx2y2   :     0.013394
      dxy     :     0.008742

  2 O s       :     3.561717  s :     3.561717
      pz      :     1.519340  p :     4.464103
      px      :     1.515094
      py      :     1.429669
      dz2     :     0.004872  d :     0.034518
      dxz     :     0.000340
      dyz     :     0.007175
      dx2y2   :     0.013391
      dxy     :     0.008740



                      *****************************
                      * MAYER POPULATION ANALYSIS *
                      *****************************

  NA   - Mulliken gross atomic population
  ZA   - Total nuclear charge
  QA   - Mulliken gross atomic charge
  VA   - Mayer's total valence
  BVA  - Mayer's bonded valence
  FA   - Mayer's free valence

  ATOM       NA         ZA         QA         VA         BVA        FA
  0 C      5.7614     6.0000     0.2386     4.2970     4.2970     0.0000
  1 O      8.1192     8.0000    -0.1192     2.4498     2.4498     0.0000
  2 O      8.1193     8.0000    -0.1193     2.4497     2.4497     0.0000

  Mayer bond orders larger than 0.100000
B(  0-C ,  1-O ) :   2.1485 B(  0-C ,  2-O ) :   2.1484 B(  1-O ,  2-O ) :   0.3012 


-------
TIMINGS
-------

Total SCF time: 0 days 0 hours 0 min 0 sec 

Total time                  ....       0.503 sec
Sum of individual times     ....       0.486 sec  ( 96.8%)

SCF preparation             ....       0.060 sec  ( 12.0%)
Fock matrix formation       ....       0.376 sec  ( 74.8%)
  Startup                   ....       0.004 sec  (  1.0% of F)
  Split-RI-J                ....       0.077 sec  ( 20.4% of F)
  XC integration            ....       0.280 sec  ( 74.4% of F)
    XC Preparation          ....       0.000 sec  (  0.0% of XC)
    Basis function eval.    ....       0.072 sec  ( 25.7% of XC)
    Density eval.           ....       0.029 sec  ( 10.3% of XC)
    XC-Functional eval.     ....       0.035 sec  ( 12.5% of XC)
    XC-Potential eval.      ....       0.028 sec  ( 10.1% of XC)
Diagonalization             ....       0.000 sec  (  0.0%)
Density matrix formation    ....       0.006 sec  (  1.2%)
Total Energy calculation    ....       0.006 sec  (  1.2%)
Population analysis         ....       0.004 sec  (  0.8%)
Orbital Transformation      ....       0.003 sec  (  0.7%)
Orbital Orthonormalization  ....       0.000 sec  (  0.0%)
DIIS solution               ....       0.019 sec  (  3.7%)
SOSCF solution              ....       0.013 sec  (  2.5%)
Finished LeanSCF after   0.5 sec

Maximum memory used throughout the entire LEANSCF-calculation: 5.3 MB

-------------------------   --------------------
FINAL SINGLE POINT ENERGY      -188.254798679428
-------------------------   --------------------



           ************************************************************
           *        Program running with 4 parallel MPI-processes     *
           *              working on a common directory               *
           ************************************************************
------------------------------------------------------------------------------
                         ORCA SCF GRADIENT CALCULATION
------------------------------------------------------------------------------

Nuc. rep. gradient        (SHARK) ... done (  0.0 sec)
HCore & Overlap gradient  (SHARK) ... done (  0.0 sec)
Split-RIJ-J gradient      (SHARK) ... done (  0.1 sec)
XC gradient                       ... done (  0.1 sec)

------------------
CARTESIAN GRADIENT
------------------

   1   C   :    0.000028080    0.000112614   -0.000000000
   2   O   :    0.008892519    0.040994646    0.000000000
   3   O   :   -0.008920599   -0.041107260    0.000000000

Difference to translation invariance:
           :    0.0000000000    0.0000000000    0.0000000000

Difference to rotation invariance:
           :   -0.0000000000    0.0000000000    0.0001051502

Norm of the Cartesian gradient     ...    0.0594056836
RMS gradient                       ...    0.0198018945
MAX gradient                       ...    0.0411072598

-------
TIMINGS
-------

Total SCF gradient time     ....        0.216 sec

Densities                   ....       0.000 sec  (  0.0%)
One electron gradient       ....       0.005 sec  (  2.5%)
RI-J Coulomb gradient       ....       0.104 sec  ( 48.2%)
XC gradient                 ....       0.106 sec  ( 49.2%)

Maximum memory used throughout the entire SCFGRAD-calculation: 6.5 MB
------------------------------------------------------------------------------
                         ORCA GEOMETRY RELAXATION STEP
------------------------------------------------------------------------------

Reading the OPT-File                    .... done
Getting information on internals        .... done
Copying old internal coords+grads       .... done
Making the new internal coordinates     .... (2022 redundants) done
Validating the new internal coordinates .... (2022 redundants) done
Calculating the B-matrix                .... done
Calculating the G,G- and P matrices     .... done
Transforming gradient to internals      .... done
Projecting the internal gradient        .... done
Number of atoms                         ....   3
Number of internal coordinates          ....   4
Current Energy                          ....  -188.254798679 Eh
Current gradient norm                   ....     0.059405684 Eh/bohr
Maximum allowed component of the step   ....  0.300
Current trust radius                    ....  0.300
Evaluating the initial hessian          ....  (Almloef) done
Projecting the Hessian                  .... done
Forming the augmented Hessian           .... done
Diagonalizing the augmented Hessian     .... done
Last element of RFO vector              ....  0.998651396
Lowest eigenvalues of augmented Hessian:
 -0.003088332  0.536091152  0.536091152  1.139598954
Length of the computed step             ....  0.051987255
The final length of the internal step   ....  0.051987255
Converting the step to Cartesian space:
 Initial RMS(Int)=    0.0259936274
Transforming coordinates:
 Iter   0:  RMS(Cart)=    0.0173290716 RMS(Int)=    0.0259936274
done
Storing new coordinates                 .... done

                                .--------------------.
          ----------------------|Geometry convergence|-------------------------
          Item                value                   Tolerance       Converged
          ---------------------------------------------------------------------
          RMS gradient        0.0297027805            0.0000300000      NO
          MAX gradient        0.0420640396            0.0001000000      NO
          RMS step            0.0259936274            0.0006000000      NO
          MAX step            0.0368164377            0.0010000000      NO
          ........................................................
          Max(Bonds)      0.0195      Max(Angles)    0.00
          Max(Dihed)        0.00      Max(Improp)    0.00
          ---------------------------------------------------------------------

The optimization has not yet converged - more geometry cycles are needed


    ---------------------------------------------------------------------------
                         Redundant Internal Coordinates
                            (Angstroem and degrees)

        Definition                    Value    dE/dq     Step     New-Value
    ----------------------------------------------------------------------------
     1. B(O   1,C   0)                1.1964  0.041948 -0.0194    1.1769   
     2. B(O   2,C   0)                1.1964  0.042064 -0.0195    1.1770   
     3. L(O   1,C   0,O   2, 2)       180.00  0.000000   -0.00    180.00   
     4. L(O   1,C   0,O   2, 1)       180.00  0.000001   -0.00    180.00   
    ----------------------------------------------------------------------------

Geometry step timings:
Preparation and reading OPT file:      0.000 s (12.169 %)
Internal coordinates            :      0.000 s ( 4.586 %)
B/P matrices and projection     :      0.000 s (18.871 %)
Hessian update/contruction      :      0.000 s (18.166 %)
Making the step                 :      0.000 s ( 9.524 %)
Converting the step to Cartesian:      0.000 s ( 5.644 %)
Storing new data                :      0.000 s ( 4.233 %)
Checking convergence            :      0.000 s ( 0.000 %)
Final printing                  :      0.000 s (26.279 %)
Total time                      :      0.001 s

Time for energy+gradient        :      2.848 s
Time for complete geometry iter :      2.962 s

         *************************************************************
         *                GEOMETRY OPTIMIZATION CYCLE   2            *
         *************************************************************
---------------------------------
CARTESIAN COORDINATES (ANGSTROEM)
---------------------------------
  C     -5.735405   -0.751789    0.000000
  O     -5.485233    0.398251   -0.000000
  O     -5.985602   -1.901842   -0.000000

----------------------------
CARTESIAN COORDINATES (A.U.)
----------------------------
  NO LB      ZA    FRAG     MASS         X           Y           Z
   0 C     6.0000    0    12.011  -10.838345   -1.420675    0.000000
   1 O     8.0000    0    15.999  -10.365587    0.752586   -0.000000
   2 O     8.0000    0    15.999  -11.311149   -3.593961   -0.000000

--------------------------------
INTERNAL COORDINATES (ANGSTROEM)
--------------------------------
 C      0   0   0     0.000000000000     0.00000000     0.00000000
 O      1   0   0     1.176936366858     0.00000000     0.00000000
 O      1   2   0     1.176954065746   179.99896864     0.00000000

---------------------------
INTERNAL COORDINATES (A.U.)
---------------------------
 C      0   0   0     0.000000000000     0.00000000     0.00000000
 O      1   0   0     2.224087410414     0.00000000     0.00000000
 O      1   2   0     2.224120856466   179.99896864     0.00000000



           ************************************************************
           *        Program running with 4 parallel MPI-processes     *
           *              working on a common directory               *
           ************************************************************
------------------------------------------------------------------------------
                   ___                                                        
                  /   \      - P O W E R E D   B Y -                         
                 /     \                                                     
                 |  |  |   _    _      __       _____    __    __             
                 |  |  |  | |  | |    /  \     |  _  \  |  |  /  |          
                  \  \/   | |  | |   /    \    | | | |  |  | /  /          
                 / \  \   | |__| |  /  /\  \   | |_| |  |  |/  /          
                |  |  |   |  __  | /  /__\  \  |    /   |      \           
                |  |  |   | |  | | |   __   |  |    \   |  |\   \          
                \     /   | |  | | |  |  |  |  | |\  \  |  | \   \       
                 \___/    |_|  |_| |__|  |__|  |_| \__\ |__|  \__/        
                                                                              
                      - O R C A' S   B I G   F R I E N D -                    
                                      &                                       
                       - I N T E G R A L  F E E D E R -                       
                                                                              
 v1 FN, 2020, v2 2021, v3 2022-2024                                           
------------------------------------------------------------------------------


----------------------
SHARK INTEGRAL PACKAGE
----------------------

Number of atoms                             ...      3
Number of basis functions                   ...     42
Number of shells                            ...     18
Maximum angular momentum                    ...      2
Integral batch strategy                     ... SHARK/LIBINT Hybrid
RI-J (if used) integral strategy            ... SPLIT-RIJ (Revised 2003 algorithm where possible)
Printlevel                                  ...      1
Contraction scheme used                     ... SEGMENTED contraction
Prescreening option                         ... SCHWARTZ
   Thresh                                   ... 1.000e-12
   Tcut                                     ... 1.000e-14
   Tpresel                                  ... 1.000e-14 
Coulomb Range Separation                    ... NOT USED
Exchange Range Separation                   ... NOT USED
Multipole approximations                    ... NOT USED
Finite Nucleus Model                        ... NOT USED
CABS basis                                  ... NOT available
Auxiliary Coulomb fitting basis             ... AVAILABLE
   # of basis functions in Aux-J            ...    147
   # of shells in Aux-J                     ...     45
   Maximum angular momentum in Aux-J        ...      4
Auxiliary J/K fitting basis                 ... NOT available
Auxiliary Correlation fitting basis         ... NOT available
Auxiliary 'external' fitting basis          ... NOT available

Checking pre-screening integrals            ... done (  0.0 sec) Dimension = 18
Check shell pair data                       ... done (  0.0 sec)
Shell pair information
Shell pair cut-off parameter TPreSel        ...   1.0e-14
Total number of shell pairs                 ...       171
Shell pairs after pre-screening             ...       170
Total number of primitive shell pairs       ...       705
Primitive shell pairs kept                  ...       612
          la=0 lb=0:     44 shell pairs
          la=1 lb=0:     54 shell pairs
          la=1 lb=1:     21 shell pairs
          la=2 lb=0:     27 shell pairs
          la=2 lb=1:     18 shell pairs
          la=2 lb=2:      6 shell pairs

Calculating one electron integrals          ... done (  0.0 sec)
Calculating RI/J V-Matrix + Cholesky decomp.... done (  0.0 sec)
Calculating Nuclear repulsion               ... done (  0.0 sec) ENN=     57.551262138403 Eh

Diagonalization of the overlap matrix:
Smallest eigenvalue                        ... 9.213e-03
Time for diagonalization                   ...    0.000 sec
Threshold for overlap eigenvalues          ... 1.000e-07
Number of eigenvalues below threshold      ... 0
Time for construction of square roots      ...    0.000 sec
Total time needed                          ...    0.001 sec

-------------------
DFT GRID GENERATION
-------------------

General Integration Accuracy     IntAcc      ... 4.388
Radial Grid Type                 RadialGrid  ... OptM3 with GC (2021)
Angular Grid (max. ang.)         AngularGrid ... 4 (Lebedev-302)
Angular grid pruning method      GridPruning ... 4 (adaptive)
Weight generation scheme         WeightScheme... mBecke (2022)
Basis function cutoff            BFCut       ... 1.0000e-12
Integration weight cutoff        WCut        ... 1.0000e-14
Partially contracted basis set               ... off
Rotationally invariant grid construction     ... off
Angular grids for H and He will be reduced by one unit

Total number of grid points                  ...    18366
Total number of batches                      ...      288
Average number of points per batch           ...       63
Average number of grid points per atom       ...     6122
Initializing property integral containers    ... done (  0.0 sec)

SHARK setup successfully completed in   0.1 seconds

Maximum memory used throughout the entire STARTUP-calculation: 8.7 MB


           ************************************************************
           *        Program running with 4 parallel MPI-processes     *
           *              working on a common directory               *
           ************************************************************
Occupation numbers will be reassigned to an Aufbau configuration
             **** ENERGY FILE WAS UPDATED (CO2_IR_2nd_order.en.tmp) ****
Finished Guess after   0.1 sec
Maximum memory used throughout the entire GUESS-calculation: 5.6 MB


           ************************************************************
           *        Program running with 4 parallel MPI-processes     *
           *              working on a common directory               *
           ************************************************************
----------------------------------------D-I-I-S--------------------------------------------
Iteration    Energy (Eh)           Delta-E    RMSDP     MaxDP     DIISErr   Damp  Time(sec)
-------------------------------------------------------------------------------------------
               ***  Starting incremental Fock matrix formation  ***
    1    -188.2560743069685145     0.00e+00  4.65e-04  2.95e-03  9.82e-03  0.700   0.0
    2    -188.2562414389735181    -1.67e-04  3.78e-04  2.57e-03  6.24e-03  0.700   0.0
                               ***Turning on AO-DIIS***
    3    -188.2563468051661744    -1.05e-04  2.63e-04  1.95e-03  3.89e-03  0.700   0.0
                              *** Initializing SOSCF ***
---------------------------------------S-O-S-C-F--------------------------------------
Iteration    Energy (Eh)           Delta-E    RMSDP     MaxDP     MaxGrad    Time(sec)
--------------------------------------------------------------------------------------
    4    -188.2564157707299159    -6.90e-05  6.36e-04  4.66e-03  2.78e-03     0.0
               *** Restarting incremental Fock matrix formation ***
    5    -188.2565718306809686    -1.56e-04  6.40e-05  9.64e-04  2.42e-04     0.0
    6    -188.2565717946413884     3.60e-08  3.28e-05  4.63e-04  2.27e-04     0.0
    7    -188.2565721099396114    -3.15e-07  2.45e-05  2.30e-04  1.04e-04     0.0
    8    -188.2565720911341600     1.88e-08  1.52e-05  1.37e-04  1.26e-04     0.0
    9    -188.2565721751007572    -8.40e-08  9.15e-06  1.09e-04  2.90e-05     0.0
   10    -188.2565721429429573     3.22e-08  7.22e-06  8.65e-05  9.20e-05     0.0
   11    -188.2565721783303729    -3.54e-08  4.14e-08  5.53e-07  2.66e-07     0.0
                  *** Gradient check signals convergence ***

               *****************************************************
               *                     SUCCESS                       *
               *           SCF CONVERGED AFTER  11 CYCLES          *
               *****************************************************

             **** ENERGY FILE WAS UPDATED (CO2_IR_2nd_order.en.tmp) ****

----------------
TOTAL SCF ENERGY
----------------

Total Energy       :       -188.25657217833037 Eh           -5122.72176 eV

Components:
Nuclear Repulsion  :         57.55126213840335 Eh            1566.04946 eV
Electronic Energy  :       -245.80783431673370 Eh           -6688.77122 eV
One Electron Energy:       -371.07086606717161 Eh          -10097.35161 eV
Two Electron Energy:        125.26303175043792 Eh            3408.58038 eV

Virial components:
Potential Energy   :       -375.14783576872128 Eh          -10208.29159 eV
Kinetic Energy     :        186.89126359039093 Eh            5085.56983 eV
Virial Ratio       :          2.00730536335252

DFT components:
N(Alpha)           :       10.999999382126 electrons
N(Beta)            :       10.999999382126 electrons
N(Total)           :       21.999998764251 electrons
E(X)               :      -21.576071979675 Eh       
E(C)               :       -0.743294096529 Eh       
E(XC)              :      -22.319366076204 Eh       

---------------
SCF CONVERGENCE
---------------

  Last Energy change         ...    3.5387e-08  Tolerance :   1.0000e-09
  Last MAX-Density change    ...    5.5267e-07  Tolerance :   1.0000e-08
  Last RMS-Density change    ...    4.1375e-08  Tolerance :   1.0000e-09
  Last DIIS Error            ...    2.7831e-03  Tolerance :   1.0000e-08
  Last Orbital Gradient      ...    2.6609e-07  Tolerance :   2.0000e-06
  Last Orbital Rotation      ...    2.2746e-07  Tolerance :   2.0000e-06


Total SCF time: 0 days 0 hours 0 min 0 sec 
Finished LeanSCF after   0.4 sec

Maximum memory used throughout the entire LEANSCF-calculation: 5.5 MB

-------------------------   --------------------
FINAL SINGLE POINT ENERGY      -188.256572178330
-------------------------   --------------------



           ************************************************************
           *        Program running with 4 parallel MPI-processes     *
           *              working on a common directory               *
           ************************************************************
------------------------------------------------------------------------------
                         ORCA SCF GRADIENT CALCULATION
------------------------------------------------------------------------------

Nuc. rep. gradient        (SHARK) ... done (  0.0 sec)
HCore & Overlap gradient  (SHARK) ... done (  0.0 sec)
Split-RIJ-J gradient      (SHARK) ... done (  0.1 sec)
XC gradient                       ... done (  0.1 sec)

------------------
CARTESIAN GRADIENT
------------------

   1   C   :    0.000009327    0.000030512    0.000000005
   2   O   :    0.001121704    0.005259599   -0.000000002
   3   O   :   -0.001131031   -0.005290111   -0.000000002

Difference to translation invariance:
           :   -0.0000000000    0.0000000000    0.0000000000

Difference to rotation invariance:
           :    0.0000000000   -0.0000000000    0.0000918915

Norm of the Cartesian gradient     ...    0.0076280484
RMS gradient                       ...    0.0025426828
MAX gradient                       ...    0.0052901110

-------
TIMINGS
-------

Total SCF gradient time     ....        0.185 sec

Densities                   ....       0.000 sec  (  0.0%)
One electron gradient       ....       0.005 sec  (  2.8%)
RI-J Coulomb gradient       ....       0.104 sec  ( 56.4%)
XC gradient                 ....       0.075 sec  ( 40.6%)

Maximum memory used throughout the entire SCFGRAD-calculation: 6.5 MB
------------------------------------------------------------------------------
                         ORCA GEOMETRY RELAXATION STEP
------------------------------------------------------------------------------

Reading the OPT-File                    .... done
Getting information on internals        .... done
Copying old internal coords+grads       .... done
Making the new internal coordinates     .... (2022 redundants) done
Validating the new internal coordinates .... (2022 redundants) done
Calculating the B-matrix                .... done
Calculating the G,G- and P matrices     .... done
Transforming gradient to internals      .... done
Projecting the internal gradient        .... done
Number of atoms                         ....   3
Number of internal coordinates          ....   4
Current Energy                          ....  -188.256572178 Eh
Current gradient norm                   ....     0.007628048 Eh/bohr
Maximum allowed component of the step   ....  0.300
Current trust radius                    ....  0.300
Updating the Hessian (BFGS)             .... done
Forming the augmented Hessian           .... done
Diagonalizing the augmented Hessian     .... done
Last element of RFO vector              ....  0.999970676
Lowest eigenvalues of augmented Hessian:
 -0.000058417  0.536091150  0.536091152  0.996025476
Length of the computed step             ....  0.007658363
The final length of the internal step   ....  0.007658363
Converting the step to Cartesian space:
 Initial RMS(Int)=    0.0038291816
Transforming coordinates:
 Iter   0:  RMS(Cart)=    0.0025527795 RMS(Int)=    0.0038291814
done
Storing new coordinates                 .... done
The predicted energy change is          ....    -0.000029210
Previously predicted energy change      ....    -0.001548339
Actually observed energy change         ....    -0.001773499
Ratio of predicted to observed change   ....     1.145420003
New trust radius                        ....     0.450000000

                                .--------------------.
          ----------------------|Geometry convergence|-------------------------
          Item                value                   Tolerance       Converged
          ---------------------------------------------------------------------
          Energy change      -0.0017734989            0.0000010000      NO
          RMS gradient        0.0038139628            0.0000300000      NO
          MAX gradient        0.0054096333            0.0001000000      NO
          RMS step            0.0038291816            0.0006000000      NO
          MAX step            0.0054320024            0.0010000000      NO
          ........................................................
          Max(Bonds)      0.0029      Max(Angles)    0.00
          Max(Dihed)        0.00      Max(Improp)    0.00
          ---------------------------------------------------------------------

The optimization has not yet converged - more geometry cycles are needed


    ---------------------------------------------------------------------------
                         Redundant Internal Coordinates
                            (Angstroem and degrees)

        Definition                    Value    dE/dq     Step     New-Value
    ----------------------------------------------------------------------------
     1. B(O   1,C   0)                1.1769  0.005378 -0.0029    1.1741   
     2. B(O   2,C   0)                1.1770  0.005410 -0.0029    1.1741   
     3. L(O   1,C   0,O   2, 2)       180.00 -0.000000    0.00    180.00   
     4. L(O   1,C   0,O   2, 1)       180.00  0.000001   -0.00    180.00   
    ----------------------------------------------------------------------------

Geometry step timings:
Preparation and reading OPT file:      0.000 s (15.928 %)
Internal coordinates            :      0.000 s ( 3.941 %)
B/P matrices and projection     :      0.000 s (13.957 %)
Hessian update/contruction      :      0.000 s (22.167 %)
Making the step                 :      0.000 s ( 7.718 %)
Converting the step to Cartesian:      0.000 s ( 4.598 %)
Storing new data                :      0.000 s ( 3.941 %)
Checking convergence            :      0.000 s ( 2.299 %)
Final printing                  :      0.000 s (25.287 %)
Total time                      :      0.001 s

Time for energy+gradient        :      1.250 s
Time for complete geometry iter :      1.362 s

         *************************************************************
         *                GEOMETRY OPTIMIZATION CYCLE   3            *
         *************************************************************
---------------------------------
CARTESIAN COORDINATES (ANGSTROEM)
---------------------------------
  C     -5.735407   -0.751795    0.000000
  O     -5.485841    0.395454   -0.000000
  O     -5.984992   -1.899039   -0.000000

----------------------------
CARTESIAN COORDINATES (A.U.)
----------------------------
  NO LB      ZA    FRAG     MASS         X           Y           Z
   0 C     6.0000    0    12.011  -10.838349   -1.420686    0.000000
   1 O     8.0000    0    15.999  -10.366736    0.747300   -0.000000
   2 O     8.0000    0    15.999  -11.309996   -3.588664   -0.000000

--------------------------------
INTERNAL COORDINATES (ANGSTROEM)
--------------------------------
 C      0   0   0     0.000000000000     0.00000000     0.00000000
 O      1   0   0     1.174079600381     0.00000000     0.00000000
 O      1   2   0     1.174079573881   179.99910782     0.00000000

---------------------------
INTERNAL COORDINATES (A.U.)
---------------------------
 C      0   0   0     0.000000000000     0.00000000     0.00000000
 O      1   0   0     2.218688904144     0.00000000     0.00000000
 O      1   2   0     2.218688854065   179.99910782     0.00000000



           ************************************************************
           *        Program running with 4 parallel MPI-processes     *
           *              working on a common directory               *
           ************************************************************
------------------------------------------------------------------------------
                   ___                                                        
                  /   \      - P O W E R E D   B Y -                         
                 /     \                                                     
                 |  |  |   _    _      __       _____    __    __             
                 |  |  |  | |  | |    /  \     |  _  \  |  |  /  |          
                  \  \/   | |  | |   /    \    | | | |  |  | /  /          
                 / \  \   | |__| |  /  /\  \   | |_| |  |  |/  /          
                |  |  |   |  __  | /  /__\  \  |    /   |      \           
                |  |  |   | |  | | |   __   |  |    \   |  |\   \          
                \     /   | |  | | |  |  |  |  | |\  \  |  | \   \       
                 \___/    |_|  |_| |__|  |__|  |_| \__\ |__|  \__/        
                                                                              
                      - O R C A' S   B I G   F R I E N D -                    
                                      &                                       
                       - I N T E G R A L  F E E D E R -                       
                                                                              
 v1 FN, 2020, v2 2021, v3 2022-2024                                           
------------------------------------------------------------------------------


----------------------
SHARK INTEGRAL PACKAGE
----------------------

Number of atoms                             ...      3
Number of basis functions                   ...     42
Number of shells                            ...     18
Maximum angular momentum                    ...      2
Integral batch strategy                     ... SHARK/LIBINT Hybrid
RI-J (if used) integral strategy            ... SPLIT-RIJ (Revised 2003 algorithm where possible)
Printlevel                                  ...      1
Contraction scheme used                     ... SEGMENTED contraction
Prescreening option                         ... SCHWARTZ
   Thresh                                   ... 1.000e-12
   Tcut                                     ... 1.000e-14
   Tpresel                                  ... 1.000e-14 
Coulomb Range Separation                    ... NOT USED
Exchange Range Separation                   ... NOT USED
Multipole approximations                    ... NOT USED
Finite Nucleus Model                        ... NOT USED
CABS basis                                  ... NOT available
Auxiliary Coulomb fitting basis             ... AVAILABLE
   # of basis functions in Aux-J            ...    147
   # of shells in Aux-J                     ...     45
   Maximum angular momentum in Aux-J        ...      4
Auxiliary J/K fitting basis                 ... NOT available
Auxiliary Correlation fitting basis         ... NOT available
Auxiliary 'external' fitting basis          ... NOT available

Checking pre-screening integrals            ... done (  0.0 sec) Dimension = 18
Check shell pair data                       ... done (  0.0 sec)
Shell pair information
Shell pair cut-off parameter TPreSel        ...   1.0e-14
Total number of shell pairs                 ...       171
Shell pairs after pre-screening             ...       170
Total number of primitive shell pairs       ...       705
Primitive shell pairs kept                  ...       612
          la=0 lb=0:     44 shell pairs
          la=1 lb=0:     54 shell pairs
          la=1 lb=1:     21 shell pairs
          la=2 lb=0:     27 shell pairs
          la=2 lb=1:     18 shell pairs
          la=2 lb=2:      6 shell pairs

Calculating one electron integrals          ... done (  0.0 sec)
Calculating RI/J V-Matrix + Cholesky decomp.... done (  0.0 sec)
Calculating Nuclear repulsion               ... done (  0.0 sec) ENN=     57.691730105310 Eh

Diagonalization of the overlap matrix:
Smallest eigenvalue                        ... 9.197e-03
Time for diagonalization                   ...    0.000 sec
Threshold for overlap eigenvalues          ... 1.000e-07
Number of eigenvalues below threshold      ... 0
Time for construction of square roots      ...    0.000 sec
Total time needed                          ...    0.001 sec

-------------------
DFT GRID GENERATION
-------------------

General Integration Accuracy     IntAcc      ... 4.388
Radial Grid Type                 RadialGrid  ... OptM3 with GC (2021)
Angular Grid (max. ang.)         AngularGrid ... 4 (Lebedev-302)
Angular grid pruning method      GridPruning ... 4 (adaptive)
Weight generation scheme         WeightScheme... mBecke (2022)
Basis function cutoff            BFCut       ... 1.0000e-12
Integration weight cutoff        WCut        ... 1.0000e-14
Partially contracted basis set               ... off
Rotationally invariant grid construction     ... off
Angular grids for H and He will be reduced by one unit

Total number of grid points                  ...    18366
Total number of batches                      ...      288
Average number of points per batch           ...       63
Average number of grid points per atom       ...     6122
Initializing property integral containers    ... done (  0.0 sec)

SHARK setup successfully completed in   0.1 seconds

Maximum memory used throughout the entire STARTUP-calculation: 8.7 MB


           ************************************************************
           *        Program running with 4 parallel MPI-processes     *
           *              working on a common directory               *
           ************************************************************
Occupation numbers will be reassigned to an Aufbau configuration
             **** ENERGY FILE WAS UPDATED (CO2_IR_2nd_order.en.tmp) ****
Finished Guess after   0.1 sec
Maximum memory used throughout the entire GUESS-calculation: 5.6 MB


           ************************************************************
           *        Program running with 4 parallel MPI-processes     *
           *              working on a common directory               *
           ************************************************************
----------------------------------------D-I-I-S--------------------------------------------
Iteration    Energy (Eh)           Delta-E    RMSDP     MaxDP     DIISErr   Damp  Time(sec)
-------------------------------------------------------------------------------------------
               ***  Starting incremental Fock matrix formation  ***
                              *** Initializing SOSCF ***
---------------------------------------S-O-S-C-F--------------------------------------
Iteration    Energy (Eh)           Delta-E    RMSDP     MaxDP     MaxGrad    Time(sec)
--------------------------------------------------------------------------------------
    1    -188.2565880250922419     0.00e+00  2.32e-04  1.46e-03  2.55e-04     0.0
               *** Restarting incremental Fock matrix formation ***
    2    -188.2565979712251192    -9.95e-06  1.14e-04  1.07e-03  4.32e-04     0.0
    3    -188.2565982623398497    -2.91e-07  4.53e-05  4.29e-04  4.06e-04     0.0
    4    -188.2565989386747844    -6.76e-07  4.65e-05  6.82e-04  1.86e-04     0.0
    5    -188.2565988947945925     4.39e-08  2.69e-05  3.63e-04  1.74e-04     0.0
    6    -188.2565991152733318    -2.20e-07  1.24e-05  1.15e-04  3.84e-05     0.0
    7    -188.2565990568909911     5.84e-08  9.83e-06  8.49e-05  1.27e-04     0.0
    8    -188.2565991210778975    -6.42e-08  1.22e-07  7.92e-07  6.44e-07     0.0
    9    -188.2565991210806260    -2.73e-12  2.02e-08  1.40e-07  9.98e-08     0.0
                 **** Energy Check signals convergence ****

               *****************************************************
               *                     SUCCESS                       *
               *           SCF CONVERGED AFTER   9 CYCLES          *
               *****************************************************

             **** ENERGY FILE WAS UPDATED (CO2_IR_2nd_order.en.tmp) ****

----------------
TOTAL SCF ENERGY
----------------

Total Energy       :       -188.25659912108063 Eh           -5122.72250 eV

Components:
Nuclear Repulsion  :         57.69173010530989 Eh            1569.87179 eV
Electronic Energy  :       -245.94832922639051 Eh           -6692.59428 eV
One Electron Energy:       -371.34518236836618 Eh          -10104.81613 eV
Two Electron Energy:        125.39685314197567 Eh            3412.22185 eV

Virial components:
Potential Energy   :       -375.16992993919229 Eh          -10208.89280 eV
Kinetic Energy     :        186.91333081811166 Eh            5086.17031 eV
Virial Ratio       :          2.00718658373423

DFT components:
N(Alpha)           :       10.999999454365 electrons
N(Beta)            :       10.999999454365 electrons
N(Total)           :       21.999998908730 electrons
E(X)               :      -21.581247362776 Eh       
E(C)               :       -0.743601720200 Eh       
E(XC)              :      -22.324849082976 Eh       

---------------
SCF CONVERGENCE
---------------

  Last Energy change         ...    2.7285e-12  Tolerance :   1.0000e-09
  Last MAX-Density change    ...    1.4021e-07  Tolerance :   1.0000e-08
  Last RMS-Density change    ...    2.0233e-08  Tolerance :   1.0000e-09
  Last DIIS Error            ...    1.4765e-03  Tolerance :   1.0000e-08
  Last Orbital Gradient      ...    9.9806e-08  Tolerance :   2.0000e-06
  Last Orbital Rotation      ...    9.5999e-08  Tolerance :   2.0000e-06


Total SCF time: 0 days 0 hours 0 min 0 sec 
Finished LeanSCF after   0.3 sec

Maximum memory used throughout the entire LEANSCF-calculation: 5.6 MB

-------------------------   --------------------
FINAL SINGLE POINT ENERGY      -188.256599121081
-------------------------   --------------------



           ************************************************************
           *        Program running with 4 parallel MPI-processes     *
           *              working on a common directory               *
           ************************************************************
------------------------------------------------------------------------------
                         ORCA SCF GRADIENT CALCULATION
------------------------------------------------------------------------------

Nuc. rep. gradient        (SHARK) ... done (  0.0 sec)
HCore & Overlap gradient  (SHARK) ... done (  0.0 sec)
Split-RIJ-J gradient      (SHARK) ... done (  0.1 sec)
XC gradient                       ... done (  0.1 sec)

------------------
CARTESIAN GRADIENT
------------------

   1   C   :    0.000002149   -0.000000534    0.000000008
   2   O   :   -0.000113312   -0.000423733   -0.000000004
   3   O   :    0.000111163    0.000424267   -0.000000004

Difference to translation invariance:
           :   -0.0000000000   -0.0000000000   -0.0000000000

Difference to rotation invariance:
           :   -0.0000000000    0.0000000000    0.0000867159

Norm of the Cartesian gradient     ...    0.0006202852
RMS gradient                       ...    0.0002067617
MAX gradient                       ...    0.0004242669

-------
TIMINGS
-------

Total SCF gradient time     ....        0.206 sec

Densities                   ....       0.000 sec  (  0.0%)
One electron gradient       ....       0.005 sec  (  2.6%)
RI-J Coulomb gradient       ....       0.108 sec  ( 52.6%)
XC gradient                 ....       0.092 sec  ( 44.7%)

Maximum memory used throughout the entire SCFGRAD-calculation: 6.5 MB
------------------------------------------------------------------------------
                         ORCA GEOMETRY RELAXATION STEP
------------------------------------------------------------------------------

Reading the OPT-File                    .... done
Getting information on internals        .... done
Copying old internal coords+grads       .... done
Making the new internal coordinates     .... (2022 redundants) done
Validating the new internal coordinates .... (2022 redundants) done
Calculating the B-matrix                .... done
Calculating the G,G- and P matrices     .... done
Transforming gradient to internals      .... done
Projecting the internal gradient        .... done
Number of atoms                         ....   3
Number of internal coordinates          ....   4
Current Energy                          ....  -188.256599121 Eh
Current gradient norm                   ....     0.000620285 Eh/bohr
Maximum allowed component of the step   ....  0.300
Current trust radius                    ....  0.450
Updating the Hessian (BFGS)             .... done
Forming the augmented Hessian           .... done
Diagonalizing the augmented Hessian     .... done
Last element of RFO vector              ....  0.999999834
Lowest eigenvalues of augmented Hessian:
 -0.000000357  0.536091088  0.536091152  1.076936564
Length of the computed step             ....  0.000575395
The final length of the internal step   ....  0.000575395
Converting the step to Cartesian space:
 Initial RMS(Int)=    0.0002876974
Transforming coordinates:
 Iter   0:  RMS(Cart)=    0.0001917973 RMS(Int)=    0.0002876961
done
Storing new coordinates                 .... done
The predicted energy change is          ....    -0.000000178
Previously predicted energy change      ....    -0.000029210
Actually observed energy change         ....    -0.000026943
Ratio of predicted to observed change   ....     0.922367622
New trust radius                        ....     0.675000000

                                .--------------------.
          ----------------------|Geometry convergence|-------------------------
          Item                value                   Tolerance       Converged
          ---------------------------------------------------------------------
          Energy change      -0.0000269428            0.0000010000      NO
[...]
     3:       0.00 cm**-1
     4:       0.00 cm**-1
     5:     622.79 cm**-1
     6:     624.29 cm**-1
     7:    1340.09 cm**-1
     8:    2421.81 cm**-1


------------
NORMAL MODES
------------

These modes are the Cartesian displacements weighted by the diagonal matrix
M(i,i)=1/sqrt(m[i]) where m[i] is the mass of the displaced atom
Thus, these vectors are normalized but *not* orthogonal

                  0          1          2          3          4          5    
      0       0.000000   0.000000   0.000000   0.000000   0.000000  -0.863091
      1       0.000000   0.000000   0.000000   0.000000   0.000000   0.187688
      2       0.000000   0.000000   0.000000   0.000000   0.000000   0.000018
      3       0.000000   0.000000   0.000000   0.000000   0.000000   0.323977
      4       0.000000   0.000000   0.000000   0.000000   0.000000  -0.070445
      5       0.000000   0.000000   0.000000   0.000000   0.000000  -0.000007
      6       0.000000   0.000000   0.000000   0.000000   0.000000   0.323975
      7       0.000000   0.000000   0.000000   0.000000   0.000000  -0.070459
      8       0.000000   0.000000   0.000000   0.000000   0.000000  -0.000007
                  6          7          8    
      0      -0.000017  -0.000010   0.187688
      1       0.000004   0.000004   0.863091
      2      -0.883262  -0.000000  -0.000000
      3       0.000006  -0.150307  -0.070450
      4      -0.000001  -0.690948  -0.323975
      5       0.331548   0.000000   0.000000
      6       0.000006   0.150314  -0.070454
      7      -0.000001   0.690945  -0.323977
      8       0.331548   0.000000  -0.000000


-----------
IR SPECTRUM
-----------

 Mode   freq       eps      Int      T**2         TX        TY        TZ
       cm**-1   L/(mol*cm) km/mol    a.u.
----------------------------------------------------------------------------
  5:    622.79   0.000026    0.13  0.000013  (-0.003531  0.000772  0.000000)
  6:    624.29   0.000026    0.13  0.000013  (-0.000000  0.000000 -0.003606)
  7:   1340.09   0.000000    0.00  0.000000  (-0.000000  0.000000  0.000000)
  8:   2421.81   0.002140   10.82  0.000276  ( 0.003530  0.016228 -0.000000)

* The epsilon (eps) is given for a Dirac delta lineshape.
** The dipole moment derivative (T) already includes vibrational overlap.

-------------------------------
OVERTONES AND COMBINATION BANDS
-------------------------------

   Mode     freq       eps      Int      T**2        TX        TY        TZ
           cm**-1   L/(mol*cm) km/mol    a.u.
-------------------------------------------------------------------------------
  5+   5:  1245.58   0.000000    0.00  0.000000  ( 0.000000 -0.000000  0.000000)
  5+   6:  1247.08   0.000000    0.00  0.000000  ( 0.000000  0.000000  0.000000)
  5+   7:  1962.88   0.000008    0.04  0.000001  (-0.001109 -0.000195  0.000000)
  5+   8:  3044.60   0.000000    0.00  0.000000  ( 0.000000  0.000000  0.000000)
  6+   6:  1248.58   0.000000    0.00  0.000000  ( 0.000000 -0.000000  0.000000)
  6+   7:  1964.38   0.000008    0.04  0.000001  ( 0.000000  0.000000 -0.001092)
  6+   8:  3046.10   0.000000    0.00  0.000000  ( 0.000000  0.000000 -0.000000)
  7+   7:  2680.18   0.000000    0.00  0.000000  ( 0.000000 -0.000000 -0.000000)
  7+   8:  3761.90   0.002604   13.16  0.000216  ( 0.003248  0.014334  0.000000)
  8+   8:  4843.62   0.000000    0.00  0.000000  (-0.000000 -0.000000 -0.000000)

* The epsilon (eps) is given for a Dirac delta lineshape.
** The dipole moment derivative (T) already includes vibrational overlap.

--------------
RAMAN SPECTRUM  
--------------

 Mode    freq (cm**-1)   Activity   Depolarization
-------------------------------------------------------------------
   5:       622.79      0.000000      0.716800
   6:       624.29      0.000000      0.750000
   7:      1340.09     15.260800      0.176300
   8:      2421.81      0.000000      0.692100

The first frequency considered to be a vibration is 5
The total number of vibrations considered is 4


--------------------------
THERMOCHEMISTRY AT 298.15K
--------------------------

Temperature         ...   298.15 K
Pressure            ...     1.00 atm
Total Mass          ...    44.01 AMU
Quasi RRHO          ...     True
Cut-Off Frequency   ...     1.00 cm^-1
The molecule is recognized as being linear

Throughout the following assumptions are being made:
  (1) The electronic state is orbitally nondegenerate
  (2) There are no thermally accessible electronically excited states
  (3) Hindered rotations indicated by low frequency modes are not
      treated as such but are treated as vibrations and this may
      cause some error
  (4) All equations used are the standard statistical mechanics
      equations for an ideal gas
  (5) All vibrations are strictly harmonic

freq.     622.79  E(vib)   ...       0.09 
freq.     624.29  E(vib)   ...       0.09 
freq.    1340.09  E(vib)   ...       0.01 
freq.    2421.81  E(vib)   ...       0.00 

------------
INNER ENERGY
------------

The inner energy is: U= E(el) + E(ZPE) + E(vib) + E(rot) + E(trans)
    E(el)   - is the total energy from the electronic structure calculation
              = E(kin-el) + E(nuc-el) + E(el-el) + E(nuc-nuc)
    E(ZPE)  - the the zero temperature vibrational energy from the frequency calculation
    E(vib)  - the the finite temperature correction to E(ZPE) due to population
              of excited vibrational states
    E(rot)  - is the rotational thermal energy
    E(trans)- is the translational thermal energy

Summary of contributions to the inner energy U:
Electronic energy                ...   -188.25659930 Eh
Zero point energy                ...      0.01141130 Eh       7.16 kcal/mol
Thermal vibrational correction   ...      0.00030453 Eh       0.19 kcal/mol
Thermal rotational correction    ...      0.00094418 Eh       0.59 kcal/mol
Thermal translational correction ...      0.00141627 Eh       0.89 kcal/mol
-----------------------------------------------------------------------
Total thermal energy                   -188.24252301 Eh


Summary of corrections to the electronic energy:
(perhaps to be used in another calculation)
Total thermal correction                  0.00266499 Eh       1.67 kcal/mol
Non-thermal (ZPE) correction              0.01141130 Eh       7.16 kcal/mol
-----------------------------------------------------------------------
Total correction                          0.01407629 Eh       8.83 kcal/mol


--------
ENTHALPY
--------

The enthalpy is H = U + kB*T
                kB is Boltzmann's constant
Total thermal energy              ...   -188.24252301 Eh 
Thermal Enthalpy correction       ...      0.00094421 Eh       0.59 kcal/mol
-----------------------------------------------------------------------
Total Enthalpy                    ...   -188.24157880 Eh


Note: Rotational entropy computed according to Herzberg 
Infrared and Raman Spectra, Chapter V,1, Van Nostrand Reinhold, 1945 
Point Group:  D(inf)h, Symmetry Number:   1  
Rotational constants in cm-1:     0.000000     0.382048     0.382048 

Vibrational entropy computed according to the QRRHO of S. Grimme
Chem.Eur.J. 2012 18 9955 using a reference frequency of 100.0 cm-1


-------
ENTROPY
-------

The entropy contributions are T*S = T*(S(el)+S(vib)+S(rot)+S(trans))
     S(el)   - electronic entropy
     S(vib)  - vibrational entropy
     S(rot)  - rotational entropy
     S(trans)- translational entropy
The entropies will be listed as multiplied by the temperature to get
units of energy

Electronic entropy                ...      0.00000000 Eh      0.00 kcal/mol
Vibrational entropy               ...      0.00040196 Eh      0.25 kcal/mol
Rotational entropy                ...      0.00688876 Eh      4.32 kcal/mol
Translational entropy             ...      0.01770880 Eh     11.11 kcal/mol
-----------------------------------------------------------------------
Final entropy term                ...      0.02499952 Eh     15.69 kcal/mol

In case the symmetry of your molecule has not been determined correctly
or in case you have a reason to use a different symmetry number we print 
out the resulting rotational entropy values for sn=1,12:

 non-linear molecules -----------------------------------
|  sn= 1 | S(rot)=      -0.00106013 Eh     -0.67 kcal/mol|
|  sn= 2 | S(rot)=      -0.00171459 Eh     -1.08 kcal/mol|
|  sn= 3 | S(rot)=      -0.00209742 Eh     -1.32 kcal/mol|
|  sn= 4 | S(rot)=      -0.00236904 Eh     -1.49 kcal/mol|
|  sn= 5 | S(rot)=      -0.00257973 Eh     -1.62 kcal/mol|
|  sn= 6 | S(rot)=      -0.00275188 Eh     -1.73 kcal/mol|
|  sn= 7 | S(rot)=      -0.00289742 Eh     -1.82 kcal/mol|
|  sn= 8 | S(rot)=      -0.00302350 Eh     -1.90 kcal/mol|
|  sn= 9 | S(rot)=      -0.00313471 Eh     -1.97 kcal/mol|
|  sn=10 | S(rot)=      -0.00323419 Eh     -2.03 kcal/mol|
|  sn=11 | S(rot)=      -0.00332418 Eh     -2.09 kcal/mol|
|  sn=12 | S(rot)=      -0.00340633 Eh     -2.14 kcal/mol|
 linear molecules ---------------------------------------
|  Dinfh | S(rot)=       0.00623431 Eh      3.91 kcal/mol|
|  Cinfv | S(rot)=       0.00688876 Eh      4.32 kcal/mol|
 --------------------------------------------------------


-------------------
GIBBS FREE ENERGY
-------------------

The Gibbs free energy is G = H - T*S

Total enthalpy                    ...   -188.24157880 Eh 
Total entropy correction          ...     -0.02499952 Eh    -15.69 kcal/mol
-----------------------------------------------------------------------
Final Gibbs free energy         ...   -188.26657832 Eh

For completeness - the Gibbs free energy minus the electronic energy
G-E(el)                           ...     -0.00997902 Eh     -6.26 kcal/mol


The first frequency considered to be a vibration is 5
The total number of vibrations considered is 4


--------------------------
THERMOCHEMISTRY AT 298.15K
--------------------------

Temperature         ...   298.15 K
Pressure            ...     1.00 atm
Total Mass          ...    44.01 AMU
Quasi RRHO          ...     True
Cut-Off Frequency   ...     1.00 cm^-1
The molecule is recognized as being linear

Throughout the following assumptions are being made:
  (1) The electronic state is orbitally nondegenerate
  (2) There are no thermally accessible electronically excited states
  (3) Hindered rotations indicated by low frequency modes are not
      treated as such but are treated as vibrations and this may
      cause some error
  (4) All equations used are the standard statistical mechanics
      equations for an ideal gas
  (5) All vibrations are strictly harmonic

freq.     622.79  E(vib)   ...       0.09 
freq.     624.29  E(vib)   ...       0.09 
freq.    1340.09  E(vib)   ...       0.01 
freq.    2421.81  E(vib)   ...       0.00 

------------
INNER ENERGY
------------

The inner energy is: U= E(el) + E(ZPE) + E(vib) + E(rot) + E(trans)
    E(el)   - is the total energy from the electronic structure calculation
              = E(kin-el) + E(nuc-el) + E(el-el) + E(nuc-nuc)
    E(ZPE)  - the the zero temperature vibrational energy from the frequency calculation
    E(vib)  - the the finite temperature correction to E(ZPE) due to population
              of excited vibrational states
    E(rot)  - is the rotational thermal energy
    E(trans)- is the translational thermal energy

Summary of contributions to the inner energy U:
Electronic energy                ...   -188.25659930 Eh
Zero point energy                ...      0.01141130 Eh       7.16 kcal/mol
Thermal vibrational correction   ...      0.00030453 Eh       0.19 kcal/mol
Thermal rotational correction    ...      0.00094418 Eh       0.59 kcal/mol
Thermal translational correction ...      0.00141627 Eh       0.89 kcal/mol
-----------------------------------------------------------------------
Total thermal energy                   -188.24252301 Eh


Summary of corrections to the electronic energy:
(perhaps to be used in another calculation)
Total thermal correction                  0.00266499 Eh       1.67 kcal/mol
Non-thermal (ZPE) correction              0.01141130 Eh       7.16 kcal/mol
-----------------------------------------------------------------------
Total correction                          0.01407629 Eh       8.83 kcal/mol


--------
ENTHALPY
--------

The enthalpy is H = U + kB*T
                kB is Boltzmann's constant
Total thermal energy              ...   -188.24252301 Eh 
Thermal Enthalpy correction       ...      0.00094421 Eh       0.59 kcal/mol
-----------------------------------------------------------------------
Total Enthalpy                    ...   -188.24157880 Eh


Note: Rotational entropy computed according to Herzberg 
Infrared and Raman Spectra, Chapter V,1, Van Nostrand Reinhold, 1945 
Point Group:  D(inf)h, Symmetry Number:   1  
Rotational constants in cm-1:     0.000000     0.382048     0.382048 

Vibrational entropy computed according to the QRRHO of S. Grimme
Chem.Eur.J. 2012 18 9955 using a reference frequency of 100.0 cm-1


-------
ENTROPY
-------

The entropy contributions are T*S = T*(S(el)+S(vib)+S(rot)+S(trans))
     S(el)   - electronic entropy
     S(vib)  - vibrational entropy
     S(rot)  - rotational entropy
     S(trans)- translational entropy
The entropies will be listed as multiplied by the temperature to get
units of energy

Electronic entropy                ...      0.00000000 Eh      0.00 kcal/mol
Vibrational entropy               ...      0.00040196 Eh      0.25 kcal/mol
Rotational entropy                ...      0.00688876 Eh      4.32 kcal/mol
Translational entropy             ...      0.01770880 Eh     11.11 kcal/mol
-----------------------------------------------------------------------
Final entropy term                ...      0.02499952 Eh     15.69 kcal/mol

In case the symmetry of your molecule has not been determined correctly
or in case you have a reason to use a different symmetry number we print 
out the resulting rotational entropy values for sn=1,12:

 non-linear molecules -----------------------------------
|  sn= 1 | S(rot)=      -0.00106013 Eh     -0.67 kcal/mol|
|  sn= 2 | S(rot)=      -0.00171459 Eh     -1.08 kcal/mol|
|  sn= 3 | S(rot)=      -0.00209742 Eh     -1.32 kcal/mol|
|  sn= 4 | S(rot)=      -0.00236904 Eh     -1.49 kcal/mol|
|  sn= 5 | S(rot)=      -0.00257973 Eh     -1.62 kcal/mol|
|  sn= 6 | S(rot)=      -0.00275188 Eh     -1.73 kcal/mol|
|  sn= 7 | S(rot)=      -0.00289742 Eh     -1.82 kcal/mol|
|  sn= 8 | S(rot)=      -0.00302350 Eh     -1.90 kcal/mol|
|  sn= 9 | S(rot)=      -0.00313471 Eh     -1.97 kcal/mol|
|  sn=10 | S(rot)=      -0.00323419 Eh     -2.03 kcal/mol|
|  sn=11 | S(rot)=      -0.00332418 Eh     -2.09 kcal/mol|
|  sn=12 | S(rot)=      -0.00340633 Eh     -2.14 kcal/mol|
 linear molecules ---------------------------------------
|  Dinfh | S(rot)=       0.00623431 Eh      3.91 kcal/mol|
|  Cinfv | S(rot)=       0.00688876 Eh      4.32 kcal/mol|
 --------------------------------------------------------


-------------------
GIBBS FREE ENERGY
-------------------

The Gibbs free energy is G = H - T*S

Total enthalpy                    ...   -188.24157880 Eh 
Total entropy correction          ...     -0.02499952 Eh    -15.69 kcal/mol
-----------------------------------------------------------------------
Final Gibbs free energy         ...   -188.26657832 Eh

For completeness - the Gibbs free energy minus the electronic energy
G-E(el)                           ...     -0.00997902 Eh     -6.26 kcal/mol



--------------------------------
SUGGESTED CITATIONS FOR THIS RUN
--------------------------------

Below you find a list of papers that are relevant to this ORCA run
We neither can nor want to force you to cite these papers, but we appreciate if you do
You receive ORCA, which is the product of decades of hard work by many enthusiastic individuals, for free
The only thing we kindly ask in return is that you cite our papers,
We deeply appreciate it, if you show your appreciation for ORCA by not just citing the generic ORCA reference.

Please note that relegating all ORCA citations to the supporting information does *not* help us.
SI sections are not indexed - citations you put there will not count into any citation statistics
But we need these citations in order to attract the funding resources that allow us to do what we are doing

Therefore, if you are a happy ORCA user, please consider citing a few of the papers listed below in the main body of your paper

In addition to the list printed below, the program has created the file CO2_IR_2nd_order.bibtex that contains the list in bibtex format
You can import this file easily into all common literature databanks and citation aid programs


List of essential papers. We consider these as the minimum necessary citations

  1. Neese,F.
     Software update: the ORCA program system, version 5.0
     WIRES Comput. Molec. Sci., 2022 12(1)e1606
     doi.org/10.1002/wcms.1606

List of papers to cite with high priority. The work reported in these papers was absolutely
necessary for this run to complete.
Our perspective: the developers of density functionals and basis sets usually get cited in chemistry papers
Good! But without the algorithms to do something with them, the functionals or basis sets would not do anything.
Hence, in our opinion, the algorithm design and method developments papers are equally worthy of getting cited

  1. Neese,F.
     An improvement of the resolution of the identity approximation for the formation of the Coulomb matrix
     J. Comp. Chem., 2003 24(14)1740-1747
     doi.org/10.1002/jcc.10318
  2. Bykov,D.; Petrenko,T.; Izsak,R.; Kossmann,S.; Becker,U.; Valeev,E.; Neese,F.
     Efficient implementation of the analytic second derivatives of Hartree-Fock and hybrid DFT energies: a detailed analysis of different approximations
     Molec. Phys., 2015 113 1961-1977
     doi.org/10.1080/00268976.2015.1025114
  3. Bannwarth,C.; Caldeweyher,E.; Ehlert,S.; Hansen,A.; Pracht,P.; Seibert,J.; Spicher,S.; Grimme,S.
     Extended tight-binding quantum chemistry methods
     WIRES Comput. Molec. Sci., 2020 11(2)e1493
     doi.org/10.1002/wcms.1493
  4. Neese,F.
     The SHARK Integral Generation and Digestion System
     J. Comp. Chem., 2022  1-16
     doi.org/10.1002/jcc.26942

List of suggested additional citations. These are papers that are important in the 'surrounding' of 
of this run, or papers that preceded the highly important papers. If you like your results we are grateful for a citation.

  1. Neese,F.
     The ORCA program system
     WIRES Comput. Molec. Sci., 2012 2(1)73-78
     doi.org/10.1002/wcms.81
  2. Neese,F.
     Software update: the ORCA program system, version 4.0
     WIRES Comput. Molec. Sci., 2018 8(1)1-6
     doi.org/10.1002/wcms.1327
  3. Neese,F.; Wennmohs,F.; Becker,U.; Riplinger,C.
     The ORCA quantum chemistry program package
     J. Chem. Phys., 2020 152 Art. No. L224108
     doi.org/10.1063/5.0004608

List of optional additional citations

  1. Neese,F.
     Approximate second-order SCF convergence for spin unrestricted wavefunctions
     Chem. Phys. Lett., 2000 325(1-3)93-98
     doi.org/10.1016/s0009-2614(00)00662-x

Timings for individual modules:

Sum of individual times          ...       23.443 sec (=   0.391 min)
Startup calculation              ...        2.888 sec (=   0.048 min)  12.3 %
SCF iterations                   ...        3.394 sec (=   0.057 min)  14.5 %
SCF Response                     ...        0.248 sec (=   0.004 min)   1.1 %
Property calculations            ...        0.158 sec (=   0.003 min)   0.7 %
SCF Gradient evaluation          ...        1.772 sec (=   0.030 min)   7.6 %
Geometry relaxation              ...        0.007 sec (=   0.000 min)   0.0 %
Numerical frequency calculation  ...       13.370 sec (=   0.223 min)  57.0 %
XTB module                       ...        1.606 sec (=   0.027 min)   6.9 %
                             ****ORCA TERMINATED NORMALLY****
TOTAL RUN TIME: 0 days 0 hours 0 minutes 21 seconds 428 msec
