
                                 *****************
                                 * O   R   C   A *
                                 *****************

                                            #,                                       
                                            ###                                      
                                            ####                                     
                                            #####                                    
                                            ######                                   
                                           ########,                                 
                                     ,,################,,,,,                         
                               ,,#################################,,                 
                          ,,##########################################,,             
                       ,#########################################, ''#####,          
                    ,#############################################,,   '####,        
                  ,##################################################,,,,####,       
                ,###########''''           ''''###############################       
              ,#####''   ,,,,##########,,,,          '''####'''          '####       
            ,##' ,,,,###########################,,,                        '##       
           ' ,,###''''                  '''############,,,                           
         ,,##''                                '''############,,,,        ,,,,,,###''
      ,#''                                            '''#######################'''  
     '                                                          ''''####''''         
             ,#######,   #######,   ,#######,      ##                                
            ,#'     '#,  ##    ##  ,#'     '#,    #''#        ,####,   ,####,        
            ##       ##  ##   ,#'  ##            #'  '#       #'       #'  '#        
            ##       ##  #######   ##           ,######,      #####,   #    #        
            '#,     ,#'  ##    ##  '#,     ,#' ,#      #,     #,   #   #,  ,#        
             '#######'   ##     ##  '#######'  #'      '#     '####' # '####'        



                #########################################################
                #                        -***-                          #
                #          Department of theory and spectroscopy        #
                #                                                       #
                #                      Frank Neese                      #
                #                                                       #
                #     Directorship, Architecture, Infrastructure        #
                #                    SHARK, DRIVERS                     #
                #        Core code/Algorithms in most modules           #
                #                                                       #
                #        Max Planck Institute fuer Kohlenforschung      #
                #                Kaiser Wilhelm Platz 1                 #
                #                 D-45470 Muelheim/Ruhr                 #
                #                      Germany                          #
                #                                                       #
                #                  All rights reserved                  #
                #                        -***-                          #
                #########################################################


                         Program Version 6.0.1  -  RELEASE   -


 With contributions from (in alphabetic order):
[Max-Planck-Institut fuer Kohlenforschung]                               
  Daniel Aravena         : Magnetic Suceptibility                        
  Michael Atanasov       : Ab Initio Ligand Field Theory (pilot matlab implementation)
  Alexander A. Auer      : GIAO ZORA, VPT2 properties, NMR spectrum      
  Ute Becker             : All parallelization in ORCA, NUMFREQ, NUMCALC 
  Giovanni Bistoni       : ED, misc. LED, open-shell LED, HFLD           
  Martin Brehm           : Molecular dynamics                            
  Dmytro Bykov           : pre 5.0 version of the SCF Hessian            
  Marcos Casanova-Páez   : Triplet and SCS-CIS(D). UHF-(DLPNO)-IP/EA/STEOM-CCSD. UHF-CVS-IP/STEOM-CCSD   
  Vijay G. Chilkuri      : MRCI spin determinant printing, contributions to CSF-ICE 
  Pauline Colinet        : FMM embedding                                 
  Dipayan Datta          : RHF DLPNO-CCSD density                        
  Achintya Kumar Dutta   : EOM-CC, STEOM-CC                              
  Nicolas Foglia         : Exact transition moments, OPA infrastructure, MCD improvements    
  Dmitry Ganyushin       : Spin-Orbit,Spin-Spin,Magnetic field MRCI      
  Miquel Garcia-Rates    : C-PCM and meta-GGA Hessian, CCSD/C-PCM, Gaussian charge scheme 
  Tiago L. C. Gouveia    : GS-ROHF, GS-ROCIS                             
  Yang Guo               : DLPNO-NEVPT2, F12-NEVPT2, CIM, IAO-localization        
  Andreas Hansen         : Spin unrestricted coupled pair/coupled cluster methods 
  Ingolf Harden          : AUTO-CI MPn and infrastructure                
  Benjamin Helmich-Paris : MC-RPA, TRAH-(SCF,CASSCF), AVAS, COSX integrals, SCF dyn. polar. 
  Lee Huntington         : MR-EOM, pCC                                   
  Robert Izsak           : Overlap fitted RIJCOSX, COSX-SCS-MP3, EOM     
  Riya Kayal             : Wick's Theorem for AUTO-CI, AUTO-CI UHF-CCSDT 
  Emily Kempfer          : AUTO-CI, RHF CISDT and CCSDT                  
  Christian Kollmar      : KDIIS, OOCD, Brueckner-CCSD(T), CCSD density, CASPT2, CASPT2-K, improved NEVPT2 
  Axel Koslowski         : Symmetry handling                             
  Simone Kossmann        : meta-GGA functionals, TD-DFT gradient, OOMP2, (MP2 Hessian; deprecated post 5.0) 
  Lucas Lang             : DCDCAS                                        
  Marvin Lechner         : AUTO-CI (C++ implementation), FIC-MRCC        
  Spencer Leger          : CASSCF response                               
  Dagmar Lenk            : GEPOL surface, SMD, ORCA-2-JSON               
  Dimitrios Liakos       : Extrapolation schemes; Compound Job, initial MDCI parallelization 
  Dimitrios Manganas     : Further ROCIS development; embedding schemes. LFT, Crystal Embedding 
  Dimitrios Pantazis     : SARC Basis sets                               
  Anastasios Papadopoulos: AUTO-CI, single reference methods and gradients 
  Taras Petrenko         : pre 6.0 DFT Hessian and TD-DFT gradient, (ASA, deprecated), ECA, 1-Electron XAS/XES, NRVS 
  Peter Pinski           : DLPNO-MP2, DLPNO-MP2 Gradient                 
  Christoph Reimann      : Effective Core Potentials                     
  Marius Retegan         : Local ZFS, SOC                                
  Christoph Riplinger    : Optimizer, TS searches, QM/MM, DLPNO-CCSD(T), (RO)-DLPNO pert. Triples 
  Michael Roemelt        : Original ROCIS implementation                 
  Masaaki Saitow         : Open-shell DLPNO-CCSD energy and density      
  Barbara Sandhoefer     : DKH picture change effects                    
  Kantharuban Sivalingam : CASSCF convergence/infrastructure, NEVPT2 and variants, FIC-MRCI 
  Bernardo de Souza      : ESD, SOC TD-DFT                               
  Georgi L. Stoychev     : AutoAux, RI-MP2 NMR, DLPNO-MP2 response, X2C  
  Van Anh Tran           : RI-MP2 g-tensors                              
  Willem Van den Heuvel  : Paramagnetic NMR                              
  Zikuan Wang            : NOTCH, Electric field optimization            
  Frank Wennmohs         : Technical directorship and infrastructure     
  Hang Xu                : AUTO-CI-Response properties                   
                                                                         
[FACCTs GmbH]                                                            
  Markus Bursch, Miquel Garcia-Rates, Christoph Riplinger, Bernardo de Souza, Georgi L. Stoychev 
                                                                 
  APM, Basis sets (HGBS, AHGBS, def-TZVP (Ac-Lr), def2-XVPD (La-Lu)), CI-OPT, improved COSX, DLPNO-Multilevel,           
  DOCKER, DRACO, updates on ESD, GOAT, IRC, LR-CPCM, MBIS, meta-GGA TD-DFT gradient, ML-optimized integration grids, 
  MM, NACMEs, nearIR, NEB, NEB-TS, NL-DFT gradient (VV10), 2- and 3-layer-ONIOM, interface openCOSMO-RS, QMMM,   
  Crystal-QMMM, SF, symmetry and pop. for TD-DFT, r2SCAN hybrids, SOLVATOR                                   
                                                                         
[Other institutions]                                                     
  V. Asgeirsson          : NEB                                           
  Christoph Bannwarth    : sTDA-DFT, sTD-DFT, PBEh-3c, B97-3c, D3        
  Sebastian Ehlert       : rSCAN, r2SCAN, r2SCAN-3c, D4, dhf basis sets  
  Marvin Friede          : D4 for Fr, Ra, Ac-Lr                          
  Lars Goerigk           : TD-DFT with DH, B97 family of functionals     
  Stefan Grimme          : VdW corrections, initial TS optimization, DFT functionals, gCP, sTDA/sTD-DF 
  Waldemar Hujo          : DFT-NL                                        
  H. Jonsson             : NEB                                           
  Holger Kruse           : gCP                                           
  Marcel Mueller         : wB97X-3c, vDZP basis set                      
  Hagen Neugebauer       : wr2SCAN                                       
  Tobias Risthaus        : range-separated hybrid DFT                    
  Lukas Wittmann         : regularized MP2, r2SCAN double-hybrids, wr2SCAN        
                                                                         
We gratefully acknowledge several colleagues who have allowed us to      
interface, adapt or use parts of their codes:                            
  Ed Valeev, F. Pavosevic, A. Kumar             : LibInt (2-el integral package), F12 methods 
  Garnet Chan, S. Sharma, J. Yang, R. Olivares  : DMRG                   
  Ulf Ekstrom                                   : XCFun DFT Library      
  Mihaly Kallay                                 : mrcc  (arbitrary order and MRCC methods)
  Frank Weinhold                                : gennbo (NPA and NBO analysis)           
  Simon Mueller                                 : openCOSMO-RS                            
  Christopher J. Cramer and Donald G. Truhlar   : smd solvation model                     
  S Lehtola, MJT Oliveira, MAL Marques          : LibXC Library                           
  Liviu Ungur et al                             : ANISO software                          


 Your calculation uses the libint2 library for the computation of 2-el integrals
 For citations please refer to: http://libint.valeyev.net

 Your ORCA version has been built with support for libXC version: 6.2.2
 For citations please refer to: https://libxc.gitlab.io

 This ORCA versions uses:
   CBLAS   interface :  Fast vector & matrix operations
   LAPACKE interface :  Fast linear algebra routines
   SCALAPACK package :  Parallel linear algebra routines
   Shared memory     :  Shared parallel matrices
   BLAS/LAPACK       :  OpenBLAS 0.3.27  USE64BITINT DYNAMIC_ARCH NO_AFFINITY Haswell SINGLE_THREADED
        Core in use  :  Haswell
   Copyright (c) 2011-2014, The OpenBLAS Project


NOTE: MaxCore=750 MB was set to SCF,MP2,MDCI,CIPSI,MRCI and CIS
      => If you want to overwrite this, your respective input block should be placed after the MaxCore statement


***************************************
The coordinates will be read from file: NEB_reactant.xyz
***************************************


Your calculation utilizes the atom-pairwise dispersion correction
with the Becke-Johnson damping scheme (D3BJ)


Your calculation utilizes a Nudged-Elastic-Band implementation
 by V.Asgeirsson, C. Riplinger & H. Jonsson
Please cite in your paper:
 V. Asgeirsson et al., in prep. (2019)
   

Warning: RI is on but no J-basis has been assigned. Assigning Def2/J (nothing to worry about!)
================================================================================

----- Orbital basis set information -----
Your calculation utilizes the basis: def2-SVP
   F. Weigend and R. Ahlrichs, Phys. Chem. Chem. Phys. 7, 3297 (2005).

----- AuxJ basis set information -----
Your calculation utilizes the auxiliary basis: def2/J
   F. Weigend, Phys. Chem. Chem. Phys. 8, 1057 (2006).

================================================================================
                                        WARNINGS
                       Please study these warnings very carefully!
================================================================================


WARNING: Geometry Optimization
  ===> : Switching off AutoStart
         For restart on a previous wavefunction, please use MOREAD

================================================================================
                                       INPUT FILE
================================================================================
NAME = NEB-CI.inp
|  1> ! PBE def2-SVP D3BJ NEB-CI
|  2> 
|  3> %pal
|  4>     nprocs 4
|  5> end
|  6> 
|  7> %maxcore 750
|  8> 
|  9> %neb
| 10>     neb_end_xyzfile "NEB_product.xyz"
| 11>     NImages 5
| 12> end
| 13> 
| 14> *xyzfile 0 1 NEB_reactant.xyz
| 15> 
| 16> 
| 17> 
| 18>                          ****END OF INPUT****
================================================================================


--------------------------------------------------------------------------------
                        Nudged Elastic Band Calculation
--------------------------------------------------------------------------------

Number of images (incl. end points)     ....  7
Number of intermediate images           ....  5
Number of optimized images              ....  5
Optimization of end points before NEB   ....  NO
Use existing gbw files for MO input     ....  NO
Number of atoms                         ....  7
Number of (active) degrees of freedom   ....  21
Constrained atoms                       ....  None

-----------------------------------------
  REACTANT (ANGSTROEM)
-----------------------------------------
C     -4.283709     1.625615    -0.002642 
C     -2.974068     0.889792     0.008208 
H     -3.024283     0.063020     0.735501 
H     -2.144976     1.563000     0.255117 
H     -2.807253     0.423646    -0.976643 
O     -4.416673     2.808623     0.230366 
H     -5.177487     0.992025    -0.249898 

-----------------------------------------
  PRODUCT (ANGSTROEM)
-----------------------------------------
C     -4.278583     1.484518     0.033611 
C     -3.070429     0.911286     0.052179 
H     -2.193945     1.412820     0.468350 
H     -3.806505     3.140723     0.865082 
H     -2.937113    -0.087695    -0.356607 
O     -4.609602     2.722461     0.502765 
H     -5.158632     0.988607    -0.380772 



----------------------
NEB settings
----------------------
Method type                             ....  climbing image
Threshold for climbing image            ....  2.00e-02 Eh/Bohr 
Free endpoints                          ....  off 
Tangent type                            ....  improved 
Number of intermediate images           ....  5 
Number of images free to move           ....  5 
Spring type for image distribution      ....  distance between adjacent images 
Spring constant                         ....  energy weighted (0.0100 -to- 0.1000) Eh/Bohr^2 
Spring force perp. to the path          ....  none 
Generation of initial path              ....  image dependent pair potential 
Initial path via TS guess               ....  off 

Minimization of RMSD: Rotation          ....  always 
Minimization of RMSD: Translation type  ....  centroid 
Center fixed to origin                  ....  true 
Remove external force                   ....  true 

Reparametrization of the path           ....  off 
Convergence thresholds:
Convergence monitored for               ....  all images
Scaling factor                          ....  10.00

Convergence parameters for regular images:
               Max(|Fp|)                ....  5.00e-03 Eh/Bohr
               RMS(Fp)                  ....  2.50e-03 Eh/Bohr

Convergence parameters for climbing image:
               Max(|F|)                 ....  5.00e-04 Eh/Bohr
               RMS(F)                   ....  2.50e-04 Eh/Bohr
Optimization method:
Method                                  ....  L-BFGS
Max. iterations                         ....  500 
Step size                               ....  1.00 
Maximum allowed step size               ....  0.10 Bohr

LBFGS parameters: 
               Memory                   ....  20 
               Initial step size        ....  0.0010 
               Estimate curvature       ....  YES 
               Reset on maxmove         ....  YES 
               Reparam. on reset        ....  NO 
Generation of  the initial path:
Minimize RMSD between reactant and product configurations     .... done
       RMSD before minimization         ....  1.2396 Bohr
       RMSD after minimization          ....  0.9888 Bohr
Performing linear interpolation         ....  done
Fragment preparation                           ....  true
Bond cutoff factor                             ....  1.200e+00
Max. fragment distance                         ....  3.500e+00 Ang.
Interpolation using                            ....  IDPP (Image Dependent Pair Potential)
IDPP-Settings:
       Initial path for IDPP optimization      ....  Linear interpolation
       Pairwise distance interpolation         ....  Linear
       Remove global transl. and rot.          ....  true
       Convergence tolerance                   ....  0.0100 1/Ang.^3
       Max. number of iterations               ....    7000
       Spring constant                         ....  1.0000 1/Ang.^4
       Time step                               ....  0.0100 fs
       Max. movement per iteration             ....  0.0500 Ang.
       Full print                              ....  false 
idpp initial path generation successfully converged in 87 iterations
Displacement along initial path:              4.6915 Bohr
Writing initial trajectory to file      ....  NEB-CI_initial_path_trj.xyz



----------------------
NEB OPTIMIZATION      
----------------------

Following output files will be written:
Energy profile during opt. written to    ....  NEB-CI.interp
Optimization log-file                    ....  NEB-CI.NEB.log
Current trajectory will be written to    ....  NEB-CI_MEP_trj.xyz
       and to allxyz file                ....  NEB-CI_MEP.allxyz
       and individual images to xyz file ....  NEB-CI_im{NIm}.xyz
Trajectory history will be written to    ....  NEB-CI_MEP_ALL_trj.xyz
Converged CI will be written to          ....  NEB-CI_NEB-CI_converged.xyz

Single point energy and gradient calculation of reactant and
product configurations (have to be performed only once)
Properties of fixed NEB end points:
               Reactant:
                         E               ....   -153.531199 Eh
                         RMS(F)          ....      0.003160 Eh/Bohr
                         MAX(|F|)        ....      0.004942 Eh/Bohr
      Warning: Reactant seems to be less converged than convergence tolerances.
               You might want to use free end NEB or preopt_ends true.
               Product:
                         E               ....   -153.513746 Eh
                         RMS(F)          ....      0.004483 Eh/Bohr
                         MAX(|F|)        ....      0.012562 Eh/Bohr
      Warning: Product seems to be less converged than convergence tolerances.
               You might want to use free end NEB or preopt_ends true.



Starting iterations:

Optim.  Iteration  HEI  E(HEI)-E(0)  max(|Fp|)   RMS(Fp)    dS
Switch-on CI threshold               0.020000 
   LBFGS     0      3    0.132884    0.078224   0.019784  4.6915       
   LBFGS     1      3    0.128090    0.064793   0.016563  4.7112       
   LBFGS     2      3    0.125278    0.057475   0.014115  4.8151       
   LBFGS     3      3    0.121876    0.039096   0.011202  4.8086       
   LBFGS     4      3    0.119798    0.047706   0.011063  4.8380       
   LBFGS     5      3    0.115187    0.049904   0.010704  4.9144       
   LBFGS     6      3    0.111673    0.049048   0.010217  4.9426       
   LBFGS     7      3    0.109957    0.024055   0.006753  4.9527       
   LBFGS     8      3    0.104182    0.024611   0.006781  5.0409       
   LBFGS     9      3    0.103001    0.026360   0.006484  5.0604       
   LBFGS    10      3    0.102197    0.018644   0.005452  5.0813       

Image  3 will be converted to a climbing image in the next iteration (max(|Fp|) < 0.0200) 

Optim.  Iteration  CI   E(CI)-E(0)   max(|Fp|)   RMS(Fp)    dS     max(|FCI|)   RMS(FCI)
Convergence thresholds               0.005000   0.002500            0.000500    0.000250 
   LBFGS    11      3    0.101128    0.119330   0.023717  5.2174    0.030549    0.012378       
   LBFGS    12      3    0.100817    0.024035   0.005561  5.1337    0.013653    0.005353       
   LBFGS    13      3    0.100380    0.011058   0.003256  5.1520    0.011878    0.004511       
   LBFGS    14      3    0.098462    0.024131   0.005184  5.2796    0.006788    0.003079       
   LBFGS    15      3    0.097447    0.013788   0.003533  5.4482    0.011496    0.004614       
   LBFGS    16      3    0.097834    0.037608   0.005823  5.5942    0.009026    0.004269       
   LBFGS    17      3    0.097656    0.007860   0.002363  5.6094    0.006688    0.002813       
   LBFGS    18      3    0.097196    0.007473   0.001813  5.5524    0.005526    0.002133       
   LBFGS    19      3    0.096908    0.008888   0.001750  5.5407    0.006050    0.002672       
   LBFGS    20      3    0.096912    0.007088   0.001512  5.5467    0.005789    0.002622       
   LBFGS    21      3    0.096848    0.003327   0.000999  5.5627    0.002936    0.001394       
   LBFGS    22      3    0.096755    0.003142   0.000862  5.5832    0.002434    0.001186       
   LBFGS    23      3    0.096688    0.004463   0.001106  5.5860    0.002246    0.000968       
   LBFGS    24      3    0.096684    0.001645   0.000621  5.5802    0.001852    0.000986       
   LBFGS    25      3    0.096695    0.001852   0.000590  5.5714    0.000973    0.000456       
   LBFGS    26      3    0.096678    0.002416   0.000643  5.5664    0.001329    0.000700       
   LBFGS    27      3    0.096677    0.003030   0.000577  5.5708    0.000802    0.000386       
   LBFGS    28      3    0.096682    0.001161   0.000332  5.5766    0.000300    0.000144       

                                .--------------------.
          ----------------------| CI-NEB convergence |-------------------------
          Item                value                   Tolerance       Converged
          ---------------------------------------------------------------------
          RMS(Fp)             0.0003317827            0.0025000000      YES
          MAX(|Fp|)           0.0011606532            0.0050000000      YES
          RMS(FCI)            0.0001438915            0.0002500000      YES
          MAX(|FCI|)          0.0002996516            0.0005000000      YES
          ---------------------------------------------------------------------

The elastic band and climbing image have converged successfully to a MEP in 28 iterations!


                    *********************H U R R A Y*********************
                    ***        THE NEB OPTIMIZATION HAS CONVERGED     ***
                    *****************************************************



---------------------------------------------------------------
                         PATH SUMMARY              
---------------------------------------------------------------
All forces in Eh/Bohr.

Image Dist.(Ang.)    E(Eh)   dE(kcal/mol)  max(|Fp|)  RMS(Fp)
  0     0.000    -153.53120      0.00       0.00505   0.00313
  1     0.907    -153.49931     20.01       0.00109   0.00045
  2     1.213    -153.45525     47.66       0.00116   0.00039
  3     1.450    -153.43452     60.67       0.00029   0.00014 <= CI
  4     1.728    -153.45964     44.90       0.00093   0.00034
  5     2.126    -153.49315     23.87       0.00100   0.00044
  6     2.951    -153.51375     10.95       0.01255   0.00446

Straight line distance between images along the path:
        D( 0- 1) =   0.9072 Ang.
        D( 1- 2) =   0.3062 Ang.
        D( 2- 3) =   0.2366 Ang.
        D( 3- 4) =   0.2782 Ang.
        D( 4- 5) =   0.3976 Ang.
        D( 5- 6) =   0.8252 Ang.

---------------------------------------------------------------
               INFORMATION ABOUT SADDLE POINT     
---------------------------------------------------------------

Climbing image                            ....  3 
Energy                                    ....  -153.43451697 Eh
Max. abs. force                           ....  2.9965e-04 Eh/Bohr

-----------------------------------------
  SADDLE POINT (ANGSTROEM)
-----------------------------------------
C     -0.663079     0.280253    -0.096808 
C      0.509735    -0.511410    -0.170103 
H      0.839190    -0.862165     0.828916 
H      0.741453     0.864067     0.388360 
H      0.695850    -1.243947    -0.974065 
O     -0.454695     1.365925     0.565391 
H     -1.668454     0.107276    -0.541691 

-----------------------------------------
  FORCES (Eh/Bohr)
-----------------------------------------
C     -0.000228    -0.000202    -0.000094 
C     -0.000114    -0.000048     0.000148 
H     -0.000030     0.000231    -0.000079 
H      0.000192     0.000108    -0.000014 
H     -0.000192     0.000060    -0.000002 
O      0.000073    -0.000118     0.000153 
H      0.000300    -0.000030    -0.000112 

-----------------------------------------
  UNIT TANGENT
-----------------------------------------
C      0.107763    -0.152584    -0.130974 
C     -0.172066    -0.291656    -0.107382 
H      0.155834     0.145702    -0.067812 
H     -0.401806     0.530449     0.355350 
H     -0.092351    -0.210423    -0.049913 
O      0.355996    -0.094507     0.045488 
H      0.046629     0.073019    -0.044758 
 => Unit tangent is an approximation to the TS mode at the saddle point
----------
STATISTICS
----------

For the individual parts of the NEB, NEB-CI or NEB-TS run:

Number of iterations:
     NEB                               ... 29  100.0%
Number of SCF / gradient calculations:
     NEB                               ... 172  100.0%

----------
 TIMINGS
----------

For the individual parts of the NEB, NEB-CI or NEB-TS run:

Total                                  ...      223.292 sec
NEB                                    ...      223.292 sec  100.0%


--------------------------------
SUGGESTED CITATIONS FOR THIS RUN
--------------------------------

Below you find a list of papers that are relevant to this ORCA run
We neither can nor want to force you to cite these papers, but we appreciate if you do
You receive ORCA, which is the product of decades of hard work by many enthusiastic individuals, for free
The only thing we kindly ask in return is that you cite our papers,
We deeply appreciate it, if you show your appreciation for ORCA by not just citing the generic ORCA reference.

Please note that relegating all ORCA citations to the supporting information does *not* help us.
SI sections are not indexed - citations you put there will not count into any citation statistics
But we need these citations in order to attract the funding resources that allow us to do what we are doing

Therefore, if you are a happy ORCA user, please consider citing a few of the papers listed below in the main body of your paper

In addition to the list printed below, the program has created the file NEB-CI.bibtex that contains the list in bibtex format
You can import this file easily into all common literature databanks and citation aid programs


List of essential papers. We consider these as the minimum necessary citations

  1. Neese,F.
     Software update: the ORCA program system, version 5.0
     WIRES Comput. Molec. Sci., 2022 12(1)e1606
     doi.org/10.1002/wcms.1606

List of papers to cite with high priority. The work reported in these papers was absolutely
necessary for this run to complete.
Our perspective: the developers of density functionals and basis sets usually get cited in chemistry papers
Good! But without the algorithms to do something with them, the functionals or basis sets would not do anything.
Hence, in our opinion, the algorithm design and method developments papers are equally worthy of getting cited

  1. Neese,F.
     An improvement of the resolution of the identity approximation for the formation of the Coulomb matrix
     J. Comp. Chem., 2003 24(14)1740-1747
     doi.org/10.1002/jcc.10318
  2. Asgeirsson,V.; Orri Birgisson,B.; Björnsson,R.; Becker,U.; Neese,F.; Riplinger,C.; Jonsson,H.
     Nudged Elastic Band Method for Molecular Reactions Using Energy-Weighted Springs Combined with Eigenvector Following
     J. Chem. Theory Comput., 2021 17 4929-4945
     doi.org/10.1021/acs.jctc.1c00462
  3. Neese,F.
     The SHARK Integral Generation and Digestion System
     J. Comp. Chem., 2022  1-16
     doi.org/10.1002/jcc.26942

List of suggested additional citations. These are papers that are important in the 'surrounding' of 
of this run, or papers that preceded the highly important papers. If you like your results we are grateful for a citation.

  1. Neese,F.
     The ORCA program system
     WIRES Comput. Molec. Sci., 2012 2(1)73-78
     doi.org/10.1002/wcms.81
  2. Neese,F.
     Software update: the ORCA program system, version 4.0
     WIRES Comput. Molec. Sci., 2018 8(1)1-6
     doi.org/10.1002/wcms.1327
  3. Neese,F.; Wennmohs,F.; Becker,U.; Riplinger,C.
     The ORCA quantum chemistry program package
     J. Chem. Phys., 2020 152 Art. No. L224108
     doi.org/10.1063/5.0004608

List of optional additional citations

  1. Neese,F.
     Approximate second-order SCF convergence for spin unrestricted wavefunctions
     Chem. Phys. Lett., 2000 325(1-3)93-98
     doi.org/10.1016/s0009-2614(00)00662-x

Timings for individual modules:

Sum of individual times          ...      227.478 sec (=   3.791 min)
Startup calculation              ...        0.698 sec (=   0.012 min)   0.3 %
SCF iterations                   ...        2.367 sec (=   0.039 min)   1.0 %
SCF Gradient evaluation          ...        1.120 sec (=   0.019 min)   0.5 %
NEB Iterations                   ...      223.292 sec (=   3.722 min)  98.2 %
                             ****ORCA TERMINATED NORMALLY****
TOTAL RUN TIME: 0 days 0 hours 3 minutes 45 seconds 29 msec
