
                                 *****************
                                 * O   R   C   A *
                                 *****************

                                            #,                                       
                                            ###                                      
                                            ####                                     
                                            #####                                    
                                            ######                                   
                                           ########,                                 
                                     ,,################,,,,,                         
                               ,,#################################,,                 
                          ,,##########################################,,             
                       ,#########################################, ''#####,          
                    ,#############################################,,   '####,        
                  ,##################################################,,,,####,       
                ,###########''''           ''''###############################       
              ,#####''   ,,,,##########,,,,          '''####'''          '####       
            ,##' ,,,,###########################,,,                        '##       
           ' ,,###''''                  '''############,,,                           
         ,,##''                                '''############,,,,        ,,,,,,###''
      ,#''                                            '''#######################'''  
     '                                                          ''''####''''         
             ,#######,   #######,   ,#######,      ##                                
            ,#'     '#,  ##    ##  ,#'     '#,    #''#        ,####,    ,#,          
            ##       ##  ##   ,#'  ##            #'  '#       #'       ,# #          
            ##       ##  #######   ##           ,######,      #####,      #          
            '#,     ,#'  ##    ##  '#,     ,#' ,#      #,     #,   #      #          
             '#######'   ##     ##  '#######'  #'      '#     '####' #    #          



                #########################################################
                #                        -***-                          #
                #          Department of theory and spectroscopy        #
                #                                                       #
                #                      Frank Neese                      #
                #                                                       #
                #     Directorship, Architecture, Infrastructure        #
                #                    SHARK, DRIVERS                     #
                #        Core code/Algorithms in most modules           #
                #                                                       #
                #        Max Planck Institute fuer Kohlenforschung      #
                #                Kaiser Wilhelm Platz 1                 #
                #                 D-45470 Muelheim/Ruhr                 #
                #                      Germany                          #
                #                                                       #
                #                  All rights reserved                  #
                #                        -***-                          #
                #########################################################


                         Program Version 6.1.0  -  RELEASE   -
                                (GIT: $679e74b$)
                          ($2025-06-10 18:02:51 +0200$)


 With contributions from (in alphabetic order):
[Max-Planck-Institut fuer Kohlenforschung]                               
  Daniel Aravena         : Magnetic Suceptibility                        
  Michael Atanasov       : Ab Initio Ligand Field Theory (pilot matlab implementation)
  Alexander A. Auer      : GIAO ZORA, VPT2 properties, NMR spectrum      
  Ute Becker             : All parallelization in ORCA, NUMFREQ, NUMCALC 
  Giovanni Bistoni       : ED, misc. LED, open-shell LED, HFLD           
  Dmytro Bykov           : pre 5.0 version of the SCF Hessian            
  Marcos Casanova-Páez   : Triplet and SCS-CIS(D). UHF-(DLPNO)-IP/EA/STEOM-CCSD. UHF-CVS-IP/STEOM-CCSD   
  Vijay G. Chilkuri      : MRCI spin determinant printing, contributions to CSF-ICE 
  Pauline Colinet        : FMM embedding                                 
  Dipayan Datta          : RHF DLPNO-CCSD density                        
  Achintya Kumar Dutta   : EOM-CC, STEOM-CC                              
  Nicolas Foglia         : Exact transition moments, OPA infrastructure, MCD improvements    
  Dmitry Ganyushin       : Spin-Orbit,Spin-Spin,Magnetic field MRCI      
  Miquel Garcia-Rates    : C-PCM and meta-GGA Hessian, CCSD/C-PCM, Gaussian charge scheme 
  Tiago L. C. Gouveia    : GS-ROHF, GS-ROCIS                             
  Yang Guo               : DLPNO-NEVPT2, F12-NEVPT2, CIM, IAO-localization        
  Andreas Hansen         : Spin unrestricted coupled pair/coupled cluster methods 
  Ingolf Harden          : AUTO-CI MPn and infrastructure                
  Benjamin Helmich-Paris : MC-RPA, TRAH-(SCF,CASSCF), AVAS, COSX integrals, SCF dyn. polar., MC-PDFT, srDFT 
  Lee Huntington         : MR-EOM, pCC                                   
  Robert Izsak           : Overlap fitted RIJCOSX, COSX-SCS-MP3, EOM     
  Riya Kayal             : Wick's Theorem for AUTO-CI, AUTO-CI UHF-CCSDT 
  Emily Kempfer          : AUTO-CI RHF CISDT and CCSDT, approximate NEVPT4
  Christian Kollmar      : KDIIS, OOCD, Brueckner-CCSD(T), CCSD density, CASPT2, CASPT2-K, improved NEVPT2 
  Axel Koslowski         : Symmetry handling                             
  Simone Kossmann        : meta-GGA functionals, TD-DFT gradient, OOMP2, (MP2 Hessian; deprecated post 5.0) 
  Lucas Lang             : DCDCAS, Hyperfine gauge corrections, ICE-SOC+SSC
  Marvin Lechner         : AUTO-CI (C++ implementation), FIC-MRCC        
  Spencer Leger          : CASSCF response                               
  Dagmar Lenk            : GEPOL surface, SMD, ORCA-2-JSON               
  Dimitrios Liakos       : Extrapolation schemes; Compound Job, Property file
  Dimitrios Manganas     : Further ROCIS development; embedding schemes. LFT, Crystal Embedding 
  Dimitrios Pantazis     : SARC Basis sets                               
  Anastasios Papadopoulos: AUTO-CI, single reference methods and gradients 
  Taras Petrenko         : pre 6.0 DFT Hessian and TD-DFT gradient,  ECA, NRVS 
  Petra Pikulova         : Analytic Raman intensities                    
  Peter Pinski           : DLPNO-MP2, DLPNO-MP2 Gradient                 
  Shashank Vittal Rao    : ES-AILFT, MagRelax                            
  Christoph Reimann      : Effective Core Potentials                     
  Marius Retegan         : Local ZFS, SOC                                
  Christoph Riplinger    : Optimizer, TS searches, QM/MM, DLPNO-CCSD(T), (RO)-DLPNO pert. Triples 
  Michael Roemelt        : Original ROCIS implementation, recursive CI coupling coefficients
  Masaaki Saitow         : Open-shell DLPNO-CCSD energy and density      
  Barbara Sandhoefer     : DKH picture change effects                    
  Yorick L. A. Schmerwitz: GMF and freeze-and-release deltaSCF, NEB S-IDPP initial path                    
  Kantharuban Sivalingam : CASSCF convergence/infrastructure, NEVPT2, NEVPT3, NEVPT4(SD), FIC-MRCI and CEPA variants
  Bernardo de Souza      : ESD, SOC TD-DFT                               
  Georgi L. Stoychev     : AutoAux, RI-MP2 NMR, DLPNO-MP2 response, X2C  
  Van Anh Tran           : RI-MP2 g-tensors                              
  Willem Van den Heuvel  : Paramagnetic NMR                              
  Zikuan Wang            : NOTCH, Electric field optimization            
  Frank Wennmohs         : Technical directorship and infrastructure     
  Hang Xu                : AUTO-CI-Response properties                   
                                                                         
[FACCTs GmbH]                                                            
  Markus Bursch, Nicolas Foglia, Miquel Garcia-Rates, Ingolf Harden, Hagen Neugebauer, Anastasios Papadopoulos, 
  Christoph Riplinger, Bernardo de Souza, Georgi L. Stoychev                                                    
                                                                 
  APM, various basis sets, CI-OPT, improved COSX, DLPNO-Multilevel,           
  DOCKER, DRACO, updates on ESD, Fragmentator, GOAT, IRC, LR-CPCM, L-BFGS, MBIS, meta-GGA TD-DFT gradient, ML-optimized integration grids, 
  MM, NACMEs, nearIR, NEB, NEB-TS, NL-DFT gradient (VV10), 2- and 3-layer-ONIOM, interface openCOSMO-RS, QMMM,   
  Crystal-QMMM, RESP, rigid body optimization, SF, symmetry and pop. for TD-DFT, various functionals, SOLVATOR                                   
                                                                         
[Other institutions]                                                     
  V. Asgeirsson          : NEB                                           
  Christoph Bannwarth    : sTDA-DFT, sTD-DFT, PBEh-3c, B97-3c, D3        
  Giovanni Bistoni       : ETS/NOCV, ADLD/ADEX, COVALED                  
  Martin Brehm           : Molecular dynamics                            
  Ronald Cardenas        : ETS/NOCV                                      
  Martina Colucci        : COVALED                                       
  Sebastian Ehlert       : rSCAN, r2SCAN, r2SCAN-3c, D4, dhf basis sets  
  Marvin Friede          : D4 for Fr, Ra, Ac-Lr                          
  Lars Goerigk           : TD-DFT with DH, B97 family of functionals     
  Stefan Grimme          : VdW corrections, initial TS optimization, DFT functionals, gCP, sTDA/sTD-DF 
  Waldemar Hujo          : DFT-NL                                        
  H. Jonsson             : NEB                                           
  Holger Kruse           : gCP                                           
  Marcel Mueller         : wB97X-3c, vDZP basis set                      
  Hagen Neugebauer       : wr2SCAN, Native XTB                           
  Gianluca Regni         : ADLD/ADEX                                     
  Tobias Risthaus        : pre 6.0 range-separated hybrid DFT and stability analysis
  Lukas Wittmann         : regularized MP2, r2SCAN double-hybrids, wr2SCAN        
                                                                         
We gratefully acknowledge several colleagues who have allowed us to      
interface, adapt or use parts of their codes:                            
  Ed Valeev, F. Pavosevic, A. Kumar             : LibInt (2-el integral package), F12 methods 
  Garnet Chan, S. Sharma, J. Yang, R. Olivares  : DMRG                   
  Ulf Ekstrom                                   : XCFun DFT Library      
  Mihaly Kallay                                 : mrcc  (arbitrary order and MRCC methods)
  Frank Weinhold                                : gennbo (NPA and NBO analysis)           
  Simon Mueller                                 : openCOSMO-RS                            
  Christopher J. Cramer and Donald G. Truhlar   : smd solvation model                     
  S Lehtola, MJT Oliveira, MAL Marques          : LibXC Library                           
  Liviu Ungur et al                             : ANISO software                          


 Your calculation uses the libint2 library for the computation of 2-el integrals
 For citations please refer to: http://libint.valeyev.net

 Your ORCA version has been built with support for libXC version: 7.0.0
 For citations please refer to: https://libxc.gitlab.io

 This ORCA versions uses:
   CBLAS   interface :  Fast vector & matrix operations
   LAPACKE interface :  Fast linear algebra routines
   SCALAPACK package :  Parallel linear algebra routines
   Shared memory     :  Shared parallel matrices
   BLAS/LAPACK       :  OpenBLAS 0.3.29  USE64BITINT DYNAMIC_ARCH NO_AFFINITY Haswell SINGLE_THREADED
        Core in use  :  Haswell
   Copyright (c) 2011-2014, The OpenBLAS Project


  ***********************************
  * Starting time: Fri Sep 26 20:01:54 2025
  * Host name:     Host-001
  * Process ID:    23707
  * Working dir.:  /home/ppravatto/Documenti/Esperimenti/ChimicaComputazionale/SPyCCI/NEB_reactant_NEB_product_dqxzdivd_orca_PBE_def2-SVP_vacuum_NEB-TS
  ***********************************

NOTE: MaxCore=750 MB was set to SCF,MP2,MDCI,CIPSI,MRCI,RASCI and CIS
      => If you want to overwrite this, your respective input block should be placed after the MaxCore statement


***************************************
The coordinates will be read from file: NEB_reactant.xyz
***************************************


Your calculation utilizes the atom-pairwise dispersion correction
with the Becke-Johnson damping scheme (D3BJ)


Your calculation utilizes a Nudged-Elastic-Band implementation
by V. Ásgeirsson, C. Riplinger & H. Jónsson
Please cite in your paper:
Ásgeirsson, V.; Birgisson, B. O.; Bjornsson, R.; Becker, U.; Neese, F.; Riplinger, R.;
Jónsson H. J. Chem. Theory Comput. 2021, 17, 4929-4945
   

Warning: RI is on but no J-basis has been assigned. Assigning Def2/J (nothing to worry about!)
================================================================================

----- Orbital basis set information -----
Your calculation utilizes the basis: def2-SVP
   F. Weigend and R. Ahlrichs, Phys. Chem. Chem. Phys. 7, 3297 (2005).

----- AuxJ basis set information -----
Your calculation utilizes the auxiliary basis: def2/J
   H-Rn: F. Weigend, Phys. Chem. Chem. Phys. 8, 1057 (2006).
   Fr-Lr: K. Eichkorn, F. Weigend, O. Treutler, R. Ahlrichs; Theor. Chem. Acc. 97, 119 (1997).

================================================================================
                                        WARNINGS
                       Please study these warnings very carefully!
================================================================================


WARNING: Geometry Optimization
  ===> : Switching off AutoStart
         For restart on a previous wavefunction, please use MOREAD

================================================================================
                                       INPUT FILE
================================================================================
NAME = input.inp
|  1> %pal
|  2>   nprocs 8
|  3> end
|  4> 
|  5> %maxcore 750
|  6> 
|  7> ! PBE def2-SVP D3BJ
|  8> ! NEB-TS
|  9> 
| 10> %neb
| 11>   product "NEB_product.xyz"
| 12>   ts "NEB_ts_guess.xyz"
| 13>   nimages 5
| 14> end
| 15> 
| 16> * xyzfile 0 1 NEB_reactant.xyz
| 17> 
| 18> 
| 19>                          ****END OF INPUT****
================================================================================


--------------------------------------------------------------------------------
                        Nudged Elastic Band Calculation
--------------------------------------------------------------------------------

Number of images (incl. end points)     ....  7
Number of intermediate images           ....  5
Number of optimized images              ....  5
Optimization of end points before NEB   ....  NO
Use existing gbw files for MO input     ....  NO
Number of atoms                         ....  7
Number of (active) degrees of freedom   ....  21
Constrained atoms                       ....  None

-----------------------------------------
  REACTANT (ANGSTROEM)
-----------------------------------------
C     -4.283709     1.625615    -0.002642 
C     -2.974068     0.889792     0.008208 
H     -3.024283     0.063020     0.735501 
H     -2.144976     1.563000     0.255117 
H     -2.807253     0.423646    -0.976643 
O     -4.416673     2.808623     0.230366 
H     -5.177487     0.992025    -0.249898 

-----------------------------------------
  PRODUCT (ANGSTROEM)
-----------------------------------------
C     -4.278583     1.484518     0.033611 
C     -3.070429     0.911286     0.052179 
H     -2.193945     1.412820     0.468350 
H     -3.806505     3.140723     0.865082 
H     -2.937113    -0.087695    -0.356607 
O     -4.609602     2.722461     0.502765 
H     -5.158632     0.988607    -0.380772 



----------------------
NEB settings
----------------------
Method type                             ....  climbing image
Threshold for climbing image            ....  2.00e-02 Eh/Bohr 
Free endpoints                          ....  off 
Tangent type                            ....  improved 
Number of intermediate images           ....  5 
Number of images free to move           ....  5 
Spring type for image distribution      ....  distance between adjacent images 
Spring constant                         ....  energy weighted (0.0100 -to- 0.1000) Eh/Bohr^2 
Spring force perp. to the path          ....  none 
Generation of initial path              ....  image dependent pair potential 
Initial path via TS guess (as image #)  ....  NEB_ts_guess.xyz (determined on-the-fly)
Minimization of RMSD: Rotation          ....  always 
Minimization of RMSD: Translation type  ....  centroid 
Center fixed to origin                  ....  true 
Remove external force                   ....  true 

Reparametrization of the path           ....  off 
Convergence thresholds:
Convergence monitored for               ....  all images
Scaling factor                          ....  10.00

Convergence parameters for regular images:
               Max(|Fp|)                ....  2.00e-02 Eh/Bohr
               RMS(Fp)                  ....  1.00e-02 Eh/Bohr

Convergence parameters for climbing image:
               Max(|F|)                 ....  2.00e-03 Eh/Bohr
               RMS(F)                   ....  1.00e-03 Eh/Bohr
Optimization method:
Method                                  ....  L-BFGS
Max. iterations                         ....  500 
Step size                               ....  1.00 
Maximum allowed step size               ....  0.10 Bohr

LBFGS parameters: 
               Memory                   ....  20 
               Initial step size        ....  0.0010 
               Estimate curvature       ....  YES 
               Reset on maxmove         ....  YES 
               Reparam. on reset        ....  NO 
Generation of  the initial path:
Minimize RMSD between reactant and TS configurations          .... done
       RMSD (R-TS) before minimization  ....  4.1199 Bohr
       RMSD (R-TS) after minimization   ....  0.5454 Bohr
Minimize RMSD between TS and product configurations           .... done
       RMSD (TS-P) before minimization  ....  4.4622 Bohr
       RMSD (TS-P) after minimization   ....  0.5674 Bohr
Optimal image number for TS guess       ....  3
Performing linear interpolation         ....  done
Generating initial path 1 out of 129Running IDPP from reactant to TS guess structure:
Running IDPP from TS guess structure to product:
 -> Success!
Displacement along initial path:              5.1451 Bohr
Writing initial trajectory to file      ....  input_initial_path_trj.xyz



----------------------
NEB OPTIMIZATION      
----------------------

Following output files will be written:
Energy profile during opt. written to    ....  input.interp
Optimization log-file                    ....  input.NEB.log
Current trajectory will be written to    ....  input_MEP_trj.xyz
       and to allxyz file                ....  input_MEP.allxyz
       and individual images to xyz file ....  input_im{NIm}.xyz
Trajectory history will be written to    ....  input_MEP_ALL_trj.xyz
Converged CI will be written to          ....  input_NEB-CI_converged.xyz
Converged TS will be written to          ....  input_NEB-TS_converged.xyz

Single point energy and gradient calculation of reactant and
product configurations (have to be performed only once)
Properties of fixed NEB end points:
               Reactant:
                         E               ....   -153.531199 Eh
                         RMS(F)          ....      0.003160 Eh/Bohr
                         MAX(|F|)        ....      0.004948 Eh/Bohr
               Product:
                         E               ....   -153.513746 Eh
                         RMS(F)          ....      0.004490 Eh/Bohr
                         MAX(|F|)        ....      0.012524 Eh/Bohr



Starting iterations:

Optim.  Iteration  HEI  E(HEI)-E(0)  max(|Fp|)   RMS(Fp)    dS
Switch-on CI threshold               0.020000 
   LBFGS     0      3    0.096676    0.074969   0.016467  5.1451       
   LBFGS     1      3    0.096674    0.047991   0.009944  5.1409       
   LBFGS     2      3    0.096662    0.045648   0.007962  5.2121       
   LBFGS     3      3    0.096638    0.033932   0.006217  5.2274       
   LBFGS     4      3    0.096599    0.036232   0.006352  5.2646       
   LBFGS     5      3    0.096465    0.035101   0.006926  5.4363       
   LBFGS     6      3    0.096491    0.027075   0.005082  5.4498       
   LBFGS     7      3    0.096500    0.016436   0.003105  5.4621       

Image  3 will be converted to a climbing image in the next iteration (max(|Fp|) < 0.0200) 

Optim.  Iteration  CI   E(CI)-E(0)   max(|Fp|)   RMS(Fp)    dS     max(|FCI|)   RMS(FCI)
Convergence thresholds               0.020000   0.010000            0.002000    0.001000 
   LBFGS     8      3    0.096486    0.011666   0.002932  5.4675    0.005257    0.002155       
   LBFGS     9      3    0.096582    0.020463   0.003426  5.4838    0.003925    0.001559       
   LBFGS    10      3    0.096684    0.038579   0.006575  5.6047    0.000939    0.000411       
   LBFGS    11      3    0.096656    0.016189   0.002651  5.5848    0.002010    0.000809       
   LBFGS    12      3    0.096658    0.001627   0.000543  5.5679    0.001955    0.000756       

                                .--------------------.
          ----------------------| CI-NEB convergence |-------------------------
          Item                value                   Tolerance       Converged
          ---------------------------------------------------------------------
          RMS(Fp)             0.0005425031            0.0100000000      YES
          MAX(|Fp|)           0.0016269774            0.0200000000      YES
          RMS(FCI)            0.0007563995            0.0010000000      YES
          MAX(|FCI|)          0.0019552527            0.0020000000      YES
          ---------------------------------------------------------------------

The elastic band and climbing image have converged successfully to a MEP in 12 iterations!


                    *********************H U R R A Y*********************
                    ***        THE NEB OPTIMIZATION HAS CONVERGED     ***
                    *****************************************************



---------------------------------------------------------------
                         PATH SUMMARY              
---------------------------------------------------------------
All forces in Eh/Bohr.

Image Dist.(Ang.)    E(Eh)   dE(kcal/mol)  max(|Fp|)  RMS(Fp)
  0     0.000    -153.53120      0.00       0.00505   0.00313
  1     0.916    -153.49953     19.87       0.00163   0.00076
  2     1.221    -153.45556     47.47       0.00146   0.00057
  3     1.467    -153.43454     60.65       0.00031   0.00014 <= CI
  4     1.755    -153.46176     43.58       0.00149   0.00058
  5     2.149    -153.49407     23.30       0.00138   0.00073
  6     2.946    -153.51375     10.95       0.01252   0.00448

Straight line distance between images along the path:
        D( 0- 1) =   0.9156 Ang.
        D( 1- 2) =   0.3059 Ang.
        D( 2- 3) =   0.2453 Ang.
        D( 3- 4) =   0.2886 Ang.
        D( 4- 5) =   0.3940 Ang.
        D( 5- 6) =   0.7970 Ang.

---------------------------------------------------------------
               INFORMATION ABOUT SADDLE POINT     
---------------------------------------------------------------

Climbing image                            ....  3 
Energy                                    ....  -153.43454021 Eh
Max. abs. force                           ....  1.9553e-03 Eh/Bohr

-----------------------------------------
  SADDLE POINT (ANGSTROEM)
-----------------------------------------
C     -0.662280     0.278914    -0.097839 
C      0.507103    -0.515018    -0.169488 
H      0.838408    -0.859568     0.830779 
H      0.739231     0.867536     0.389033 
H      0.694984    -1.244358    -0.974300 
O     -0.450871     1.364983     0.566743 
H     -1.666576     0.107511    -0.544928 

-----------------------------------------
  FORCES (Eh/Bohr)
-----------------------------------------
C      0.000388    -0.000507    -0.000429 
C     -0.000636    -0.001027    -0.000609 
H      0.000606     0.000451    -0.000178 
H     -0.001050     0.001955     0.001461 
H     -0.000374    -0.000862    -0.000170 
O      0.000879    -0.000322     0.000028 
H      0.000187     0.000311    -0.000103 

-----------------------------------------
  UNIT TANGENT
-----------------------------------------
C      0.107613    -0.150785    -0.128314 
C     -0.175421    -0.293531    -0.104586 
H      0.163610     0.146840    -0.073047 
H     -0.398454     0.530755     0.356229 
H     -0.091799    -0.216715    -0.047867 
O      0.347295    -0.095466     0.045974 
H      0.047156     0.078903    -0.048389 
 => Unit tangent is an approximation to the TS mode at the saddle point

Next a TS optimization is performed on the CI from the NEB run.

         *************************************************************
         *                       TS OPTIMIZATION                     *
         *************************************************************


Following output files will be written:
Converged TS will be written to          ....  input_NEB-TS_converged.xyz
                                         ....  input.xyz
Current trajectory will be written to    ....  input_trj.xyz
Initial Hessian will be stored in        ....  input.appr.hess
 (Almloef) Geometry optimization settings:
Update method            Update   .... Bofill
Choice of coordinates    CoordSys .... (2022) Redundant Internals
Initial Hessian          InHess   .... Read
Max. no of cycles        MaxIter  .... 50

Convergence Tolerances:
Energy Change            TolE     ....  5.0000e-06 Eh
Max. Gradient            TolMAXG  ....  3.0000e-04 Eh/bohr
RMS Gradient             TolRMSG  ....  1.0000e-04 Eh/bohr
Max. Displacement        TolMAXD  ....  4.0000e-03 bohr
RMS Displacement         TolRMSD  ....  2.0000e-03 bohr
Strict Convergence                .... False

------------------------------------------------------------------------------
                        ORCA OPTIMIZATION COORDINATE SETUP
------------------------------------------------------------------------------

The optimization will be done in redundant internal coordinates (2022)
Making redundant internal coordinates   ...  (2022 redundants) done
Following TS mode number                ...     0
TS-active-atoms for coordinate setup... 1 3 5 
Evaluating the initial hessian          ... (Reading Exact Hessian)...  
InHessName: input.appr.hess	The file <input.appr.hess> is opened as a .hess file
done
done
Evaluating the coordinates              ...  done
Calculating the B-matrix                .... done
Calculating the G-matrix                .... done
The number of degrees of freedom        ....   22

    -----------------------------------------------------------------
                    Redundant Internal Coordinates


    -----------------------------------------------------------------
         Definition                    Initial Value    d2E/dq (diagonal element)
    -----------------------------------------------------------------
      1. B(C   1,C   0)                  1.4152         0.386099   
      2. B(H   2,C   1)                  1.1086         0.336266   
      3. B(H   3,C   1)                  1.5091         0.017236   
      4. B(H   3,C   0)                  1.5962         0.056054   
      5. B(H   4,C   1)                  1.1023         0.354726   
      6. B(O   5,H   3)                  1.3021         0.010904   
      7. B(O   5,C   1)                  2.2348         0.110703   
      8. B(O   5,C   0)                  1.2907         0.500659   
      9. B(H   6,C   0)                  1.1126         0.331190   
     10. A(C   1,C   0,H   6)          129.7230         0.197534   
     11. A(O   5,C   0,H   6)          118.9725         0.200816   
     12. A(C   1,C   0,O   5)          111.2707         0.094585   
     13. A(H   2,C   1,H   4)          113.7165         0.174875   
     14. A(C   0,C   1,H   4)          123.2984         0.252888   
     15. A(C   0,C   1,H   2)          112.0616         0.242257   
     16. A(C   0,O   5,H   3)           75.9930         0.041245   
     17. D(H   2,C   1,C   0,O   5)     63.2840         0.020305   
     18. D(H   4,C   1,C   0,O   5)   -154.9551         0.025736   
     19. D(H   4,C   1,C   0,H   6)     22.8690         0.016091   
     20. D(H   2,C   1,C   0,H   6)   -118.8919         0.018649   
     21. D(H   3,O   5,C   0,H   6)   -167.4563         0.029608   
     22. D(H   3,O   5,C   0,C   1)     10.6308         0.029330   
    -----------------------------------------------------------------

Number of atoms                         .... 7
Number of degrees of freedom            .... 22


         *************************************************************
         *                GEOMETRY OPTIMIZATION CYCLE   1            *
         *************************************************************


           ************************************************************
           *        Program running with 8 parallel MPI-processes     *
           *              working on a common directory               *
           ************************************************************
------------------------------------------------------------------------------
                             ORCA STARTUP CALCULATIONS
                           -- RI-GTO INTEGRALS CHOSEN --
------------------------------------------------------------------------------
------------------------------------------------------------------------------
                   ___                                                        
                  /   \      - P O W E R E D   B Y -                         
                 /     \                                                     
                 |  |  |   _    _      __       _____    __    __             
                 |  |  |  | |  | |    /  \     |  _  \  |  |  /  |          
                  \  \/   | |  | |   /    \    | | | |  |  | /  /          
                 / \  \   | |__| |  /  /\  \   | |_| |  |  |/  /          
                |  |  |   |  __  | /  /__\  \  |    /   |      \           
                |  |  |   | |  | | |   __   |  |    \   |  |\   \          
                \     /   | |  | | |  |  |  |  | |\  \  |  | \   \       
                 \___/    |_|  |_| |__|  |__|  |_| \__\ |__|  \__/        
                                                                              
                      - O R C A' S   B I G   F R I E N D -                    
                                      &                                       
                       - I N T E G R A L  F E E D E R -                       
                                                                              
 v1 FN, 2020, v2 2021, v3 2022-2024                                           
------------------------------------------------------------------------------


----------------------
SHARK INTEGRAL PACKAGE
----------------------

Number of atoms                             ...      7
Number of basis functions                   ...     62
Number of shells                            ...     30
Maximum angular momentum                    ...      2
Integral batch strategy                     ... SHARK/LIBINT Hybrid
RI-J (if used) integral strategy            ... SPLIT-RIJ (Revised 2003 algorithm where possible)
Printlevel                                  ...      1
Contraction scheme used                     ... SEGMENTED contraction
Prescreening option                         ... SCHWARTZ
   Thresh                                   ... 2.500e-11
   Tcut                                     ... 2.500e-12
   Tpresel                                  ... 2.500e-12 
Coulomb Range Separation                    ... NOT USED
Exchange Range Separation                   ... NOT USED
Multipole approximations                    ... NOT USED
Finite Nucleus Model                        ... NOT USED
CABS basis                                  ... NOT available
Auxiliary Coulomb fitting basis             ... AVAILABLE
   # of basis functions in Aux-J            ...    191
   # of shells in Aux-J                     ...     65
   Maximum angular momentum in Aux-J        ...      4
Auxiliary J/K fitting basis                 ... NOT available
Auxiliary Correlation fitting basis         ... NOT available
Auxiliary 'external' fitting basis          ... NOT available

Checking pre-screening integrals            ... done (  0.0 sec) Dimension = 30
   => SHARK Basis and OBASIS are compatible. Storing Pre-screening
Shell pair information
Shell pair cut-off parameter TPreSel        ...   2.5e-12
Total number of shell pairs                 ...       465
Shell pairs after pre-screening             ...       464
Total number of primitive shell pairs       ...      1647
Primitive shell pairs kept                  ...      1433
          la=0 lb=0:    152 shell pairs
          la=1 lb=0:    170 shell pairs
          la=1 lb=1:     55 shell pairs
          la=2 lb=0:     51 shell pairs
          la=2 lb=1:     30 shell pairs
          la=2 lb=2:      6 shell pairs

Checking whether 4 symmetric matrices of dimension 62 fit in memory
:Max Core in MB      =    750.00
 MB in use           =      3.85
 MB left             =    746.15
 MB needed           =      0.06
 Data fit in memory  = YES
Calculating RI/J V-Matrix + Cholesky decomp.... done (  0.0 sec)
Calculating Nuclear repulsion               ... done (  0.0 sec) ENN=     71.120471413599 Eh

Diagonalization of the overlap matrix:
Smallest eigenvalue                        ... 4.019e-03
Time for diagonalization                   ...    0.001 sec
Threshold for overlap eigenvalues          ... 1.000e-07
Number of eigenvalues below threshold      ... 0
Time for construction of square roots      ...    0.003 sec
Total time needed                          ...    0.006 sec

-------------------
DFT GRID GENERATION
-------------------

General Integration Accuracy     IntAcc      ... 4.388
Radial Grid Type                 RadialGrid  ... OptM3 with GC (2021)
Angular Grid (max. ang.)         AngularGrid ... 4 (Lebedev-302)
Angular grid pruning method      GridPruning ... 4 (adaptive)
Weight generation scheme         WeightScheme... mBecke (2022)
Basis function cutoff            BFCut       ... 1.0000e-11
Integration weight cutoff        WCut        ... 1.0000e-14
Partially contracted basis set               ... off
Rotationally invariant grid construction     ... off
Angular grids for H and He will be reduced by one unit

Total number of grid points                  ...    31358
Total number of batches                      ...      494
Average number of points per batch           ...       63
Average number of grid points per atom       ...     4480
Grids setup in   0.4 sec
Initializing property integral containers    ... done (  0.0 sec)

SHARK setup successfully completed in   0.6 seconds

Maximum memory used throughout the entire STARTUP-calculation: 10.0 MB


           ************************************************************
           *        Program running with 8 parallel MPI-processes     *
           *              working on a common directory               *
           ************************************************************
-------------------------------------------------------------------------------
                                 ORCA GUESS
                   Start orbitals & Density for SCF / CASSCF
-------------------------------------------------------------------------------

------------
SCF SETTINGS
------------
Hamiltonian:
 Density Functional     Method          .... DFT(GTOs)
 Exchange Functional    Exchange        .... PBE
   PBE kappa parameter   XKappa         ....  0.804000
   PBE mue parameter    XMuePBE         ....  0.219520
 Correlation Functional Correlation     .... PBE
   PBE beta parameter  CBetaPBE         ....  0.066725
 LDA part of GGA corr.  LDAOpt          .... PW91-LDA
 Gradients option       PostSCFGGA      .... off
   NL short-range parameter             ....  6.400000
 RI-approximation to the Coulomb term is turned on
   Number of AuxJ basis functions       .... 191


General Settings:
 Integral files         IntName         .... input
 Hartree-Fock type      HFTyp           .... RHF
 Total Charge           Charge          ....    0
 Multiplicity           Mult            ....    1
 Number of Electrons    NEL             ....   24
 Basis Dimension        Dim             ....   62
 Nuclear Repulsion      ENuc            ....     71.1204714136 Eh

Convergence Acceleration:
 AO-DIIS                CNVDIIS         .... on
   Start iteration      DIISMaxIt       ....    12
   Startup error        DIISStart       ....  0.200000
   # of expansion vecs  DIISMaxEq       ....     5
   Bias factor          DIISBfac        ....   1.050
   Max. coefficient     DIISMaxC        ....  10.000
 MO-DIIS                CNVKDIIS        .... off
 Trust-Rad. Augm. Hess. CNVTRAH         .... auto
   Auto Start mean grad. ratio tolernc. ....  1.125000
   Auto Start start iteration           ....     1
   Auto Start num. interpolation iter.  ....    10
   Max. Number of Micro iterations      ....    24
   Max. Number of Macro iterations      .... Maxiter - #DIIS iter
   Number of Davidson start vectors     ....     2
   Converg. threshold    (grad. norm)   ....   1.000e-05
   Grad. Scal. Fac. for Micro threshold ....   0.100
   Minimum threshold for Micro iter.    ....   1.000e-02
   NR start threshold (gradient norm)   ....   1.000e-04
   Initial trust radius                 ....   0.400
   Minimum AH scaling param. (alpha)    ....   1.000
   Maximum AH scaling param. (alpha)    .... 1000.000
   Quad. conv. algorithm                .... NR
   White noise on init. David. guess    .... on
   Maximum white noise                  ....   0.010
   Pseudo random numbers                .... off
   Inactive MOs                         .... canonical
   Orbital update algorithm             .... Taylor
   Preconditioner                       .... Diag
   Full preconditioner red. dimension   ....   250
 SOSCF                 CNVSOSCF           .... on
   Start iteration     SOSCFMaxIt         ....   150
   Startup grad/error  SOSCFStart         ....  0.003300
   Hessian update      SOSCFHessUp        .... L-BFGS
   Autom. constraints  SOSCFAutoConstrain .... off
 Level Shifting         CNVShift        .... on
   Level shift para.    LevelShift      ....    0.2500
   Turn off err/grad.   ShiftErr        ....    0.0010
 Zerner damping         CNVZerner       .... off
 Static damping         CNVDamp         .... on
   Fraction old density DampFac         ....    0.7000
   Max. Damping (<1)    DampMax         ....    0.9800
   Min. Damping (>=0)   DampMin         ....    0.0000
   Turn off err/grad.   DampErr         ....    0.1000

SCF Procedure:
 Maximum # iterations   MaxIter         ....   125
 SCF integral mode      SCFMode         .... Direct
   Integral package                     .... SHARK and LIBINT hybrid scheme
 Reset frequency        DirectResetFreq ....    20
 Integral Threshold     Thresh          ....  2.500e-11 Eh
 Primitive CutOff       TCut            ....  2.500e-12 Eh

Convergence Tolerance:
 Convergence Check Mode ConvCheckMode   .... Total+1el-Energy
 Convergence forced     ConvForced      .... 0
 Energy Change          TolE            ....  1.000e-08 Eh
 1-El. energy change                    ....  1.000e-05 Eh
 Orbital Gradient       TolG            ....  1.000e-05
 Orbital Rotation angle TolX            ....  1.000e-05
 DIIS Error             TolErr          ....  5.000e-07

---------------------
INITIAL GUESS: MOREAD
---------------------
Guess MOs are being read from file: input.gbw
Input Geometry matches current geometry (good)
Input basis set matches current basis set (good)
Occupation numbers will be reassigned to an Aufbau configuration
MOs were renormalized
MOs were reorthogonalized (Cholesky)
                      ------------------
                      INITIAL GUESS DONE (   0.0 sec)
                      ------------------
             **** ENERGY FILE WAS UPDATED (input.en.tmp) ****
Finished Guess after   0.1 sec
Maximum memory used throughout the entire GUESS-calculation: 6.1 MB


           ************************************************************
           *        Program running with 8 parallel MPI-processes     *
           *              working on a common directory               *
           ************************************************************

-------------------------------------------------------------------------------------------
                                      ORCA LEAN-SCF
                              memory conserving SCF solver
-------------------------------------------------------------------------------------------

----------------------------------------D-I-I-S--------------------------------------------
Iteration    Energy (Eh)           Delta-E    RMSDP     MaxDP     DIISErr   Damp  Time(sec)
-------------------------------------------------------------------------------------------
               ***  Starting incremental Fock matrix formation  ***
                              *** Initializing SOSCF ***
---------------------------------------S-O-S-C-F--------------------------------------
Iteration    Energy (Eh)           Delta-E    RMSDP     MaxDP     MaxGrad    Time(sec)
--------------------------------------------------------------------------------------
    1    -153.4311530801686843     0.00e+00  3.50e-06  2.13e-05  1.85e-06     0.4
               *** Restarting incremental Fock matrix formation ***
    2    -153.4311530802135621    -4.49e-11  5.36e-06  2.84e-05  3.79e-06     0.2
    3    -153.4311530787890376     1.42e-09  3.74e-06  1.82e-05  9.20e-06     0.2
                 **** Energy Check signals convergence ****

               *****************************************************
               *                     SUCCESS                       *
               *           SCF CONVERGED AFTER   3 CYCLES          *
               *****************************************************

             **** ENERGY FILE WAS UPDATED (input.en.tmp) ****

----------------
TOTAL SCF ENERGY
----------------

Total Energy       :       -153.43115308018645 Eh           -4175.07393 eV

Components:
Nuclear Repulsion  :         71.12047141359875 Eh            1935.28642 eV
Electronic Energy  :       -224.55162449378520 Eh           -6110.36035 eV
One Electron Energy:       -348.60440759545816 Eh           -9486.00819 eV
Two Electron Energy:        124.05278310167296 Eh            3375.64784 eV

Virial components:
Potential Energy   :       -305.50131527517755 Eh           -8313.11342 eV
Kinetic Energy     :        152.07016219499110 Eh            4138.03949 eV
Virial Ratio       :          2.00894975625429

DFT components:
N(Alpha)           :       11.999996975831 electrons
N(Beta)            :       11.999996975831 electrons
N(Total)           :       23.999993951662 electrons
E(X)               :      -19.817569480468 Eh       
E(C)               :       -0.790025581174 Eh       
E(XC)              :      -20.607595061642 Eh       

---------------
SCF CONVERGENCE
---------------

  Last Energy change         ...   -1.4245e-09  Tolerance :   1.0000e-08
  Last MAX-Density change    ...    1.8162e-05  Tolerance :   1.0000e-07
  Last RMS-Density change    ...    3.7417e-06  Tolerance :   5.0000e-09
  Last DIIS Error            ...    9.2320e-06  Tolerance :   5.0000e-07
  Last Orbital Gradient      ...    9.2004e-06  Tolerance :   1.0000e-05
  Last Orbital Rotation      ...    1.5993e-05  Tolerance :   1.0000e-05


----------------
ORBITAL ENERGIES
----------------

  NO   OCC          E(Eh)            E(eV) 
   0   2.0000     -18.782893      -511.1085 
   1   2.0000      -9.992372      -271.9063 
   2   2.0000      -9.888358      -269.0759 
   3   2.0000      -0.967307       -26.3218 
   4   2.0000      -0.660366       -17.9695 
   5   2.0000      -0.537323       -14.6213 
   6   2.0000      -0.450886       -12.2692 
   7   2.0000      -0.403303       -10.9744 
   8   2.0000      -0.380955       -10.3663 
   9   2.0000      -0.339080        -9.2268 
  10   2.0000      -0.285915        -7.7802 
  11   2.0000      -0.197935        -5.3861 
  12   0.0000      -0.085637        -2.3303 
  13   0.0000       0.038142         1.0379 
  14   0.0000       0.061875         1.6837 
  15   0.0000       0.082159         2.2357 
  16   0.0000       0.116074         3.1585 
  17   0.0000       0.188104         5.1186 
  18   0.0000       0.253666         6.9026 
  19   0.0000       0.336335         9.1522 
  20   0.0000       0.375321        10.2130 
  21   0.0000       0.446116        12.1394 
  22   0.0000       0.468871        12.7586 
*Only the first 10 virtual orbitals were printed.
-------
TIMINGS
-------

Total SCF time: 0 days 0 hours 0 min 1 sec 

Total time                  ....       1.267 sec
Sum of individual times     ....       0.904 sec  ( 71.4%)

SCF preparation             ....       0.143 sec  ( 11.3%)
Fock matrix formation       ....       0.677 sec  ( 53.5%)
  Startup                   ....       0.007 sec  (  1.1% of F)
  Split-RI-J                ....       0.067 sec  (  9.9% of F)
  XC integration            ....       0.792 sec  (117.0% of F)
    XC Preparation          ....       0.000 sec  (  0.0% of XC)
    Basis function eval.    ....       0.082 sec  ( 10.3% of XC)
    Density eval.           ....       0.029 sec  (  3.6% of XC)
    XC-Functional eval.     ....       0.024 sec  (  3.1% of XC)
    XC-Potential eval.      ....       0.055 sec  (  7.0% of XC)
Diagonalization             ....       0.000 sec  (  0.0%)
Density matrix formation    ....       0.010 sec  (  0.8%)
Total Energy calculation    ....       0.004 sec  (  0.3%)
Population analysis         ....       0.000 sec  (  0.0%)
Orbital Transformation      ....       0.010 sec  (  0.8%)
Orbital Orthonormalization  ....       0.000 sec  (  0.0%)
DIIS solution               ....       0.022 sec  (  1.7%)
SOSCF solution              ....       0.038 sec  (  3.0%)
Finished LeanSCF after   1.3 sec

Maximum memory used throughout the entire LEANSCF-calculation: 5.0 MB


-------------------------------------------------------------------------------
                          DFT DISPERSION CORRECTION                            
                                                                               
                              DFTD3 V3.1  Rev 1                                
                          USING Becke-Johnson damping                          
-------------------------------------------------------------------------------
The PBE functional is recognized
Active option DFTDOPT                   ...         4   

molecular C6(AA) [au] = 413.436976 


            DFT-D V3
 parameters
 s6 scaling factor         :     1.0000 
 a1 scaling factor         :     0.4289 
 s8 scaling factor         :     0.7875 
 a2 scaling factor         :     4.4407 
 ad hoc parameters k1-k3   :    16.0000     1.3333    -4.0000 

 Edisp/kcal,au: -2.125455761493  -0.003387128996 
 E6   /kcal   :  -1.534535969 
 E8   /kcal   :  -0.590919793 
 % E8         :  27.802027381 

-------------------------   ----------------
Dispersion correction           -0.003387129
-------------------------   ----------------


-------------------------   --------------------
FINAL SINGLE POINT ENERGY      -153.434540209182
-------------------------   --------------------



           ************************************************************
           *        Program running with 8 parallel MPI-processes     *
           *              working on a common directory               *
           ************************************************************
------------------------------------------------------------------------------
                         ORCA SCF GRADIENT CALCULATION
------------------------------------------------------------------------------

Nuc. rep. gradient        (SHARK) ... done (  0.0 sec)
HCore & Overlap gradient  (SHARK) ... done (  0.0 sec)
Split-RIJ-J gradient      (SHARK) ... done (  0.2 sec)
XC gradient                       ... done (  0.3 sec)
Dispersion correction             ... done (  0.1 sec)

-------------------
DISPERSION GRADIENT
-------------------

   1   C   :    0.000114106    0.000077369    0.000046562
   2   C   :    0.000083626    0.000507145    0.000231179
   3   H   :    0.000033182   -0.000030875   -0.000006966
   4   H   :   -0.000761051   -0.000287500   -0.000146542
   5   H   :    0.000037878   -0.000050057   -0.000020681
   6   O   :    0.000562104   -0.000230509   -0.000085997
   7   H   :   -0.000069845    0.000014428   -0.000017554

Difference to translation invariance:
           :   -0.0000000000    0.0000000000    0.0000000000

Difference to rotation invariance:
           :   -0.0000000000    0.0000000000    0.0000000000

Norm of the Dispersion gradient    ...    0.0011876420
RMS gradient                       ...    0.0002591647
MAX gradient                       ...    0.0007610507

------------------
CARTESIAN GRADIENT
------------------

   1   C   :   -0.000386136    0.000506098    0.000427834
   2   C   :    0.000635649    0.001023465    0.000610100
   3   H   :   -0.000606373   -0.000450863    0.000177046
   4   H   :    0.001048522   -0.001953941   -0.001460304
   5   H   :    0.000373870    0.000862503    0.000169974
   6   O   :   -0.000877262    0.000323780   -0.000026607
   7   H   :   -0.000188271   -0.000311042    0.000101958

Difference to translation invariance:
           :    0.0000000000   -0.0000000000   -0.0000000000

Difference to rotation invariance:
           :   -0.0000108853    0.0000381061    0.0000384749

Norm of the Cartesian gradient     ...    0.0034632947
RMS gradient                       ...    0.0007557529
MAX gradient                       ...    0.0019539406

-------
TIMINGS
-------

Total SCF gradient time     ....        0.611 sec

Densities                   ....       0.001 sec  (  0.1%)
One electron gradient       ....       0.015 sec  (  2.5%)
RI-J Coulomb gradient       ....       0.233 sec  ( 38.1%)
XC gradient                 ....       0.278 sec  ( 45.5%)

Maximum memory used throughout the entire SCFGRAD-calculation: 25.9 MB
------------------------------------------------------------------------------
                         ORCA GEOMETRY RELAXATION STEP
------------------------------------------------------------------------------

Reading the OPT-File                    .... done
Getting information on internals        .... done
Copying old internal coords+grads       .... done
Making the new internal coordinates     .... (2022 redundants) done
Validating the new internal coordinates .... (2022 redundants) done
Calculating the B-matrix                .... done
Calculating the G,G- and P matrices     .... done
Transforming gradient to internals      .... done
Projecting the internal gradient        .... done
Number of atoms                         ....   7
Number of internal coordinates          ....  22
Current Energy                          ....  -153.434540209 Eh
Current gradient norm                   ....     0.003463295 Eh/bohr
Maximum allowed component of the step   ....  0.300
Current trust radius                    ....  0.100
Evaluating the initial hessian          ....  (read) 
(Reading Exact Hessian)...  
InHessName: input.appr.hess	The file <input.appr.hess> is opened as a .hess file
done
done
Projecting the Hessian                  .... done
Diagonalizing the Hessian               .... done
Dimension of the hessian                ....  22
Lowest eigenvalues of the Hessian:
 -0.081232217  0.015010204  0.029102734  0.040696315  0.052197950
Hessian has   1 negative eigenvalues
Taking P-RFO step
Searching for lambda that maximizes along the lowest mode
TS mode is mode number   0 with eigenvalue  -0.08123222 and components:
   1.   -0.11763333
   2.   -0.01806417
   3.    0.55215859
   4.   -0.05732232
   5.   -0.01503794
   6.   -0.66856227
   7.    0.00970668
   8.    0.13564036
   9.   -0.01590013
  10.    0.02496342
  11.   -0.02357877
  12.   -0.00045354
  13.    0.04298095
  14.    0.01258801
  15.    0.03619939
  16.    0.14208890
  17.   -0.27656063
  18.   -0.11871757
  19.   -0.08943307
  20.   -0.24727613
  21.   -0.12952777
  22.   -0.10265718

Lambda that maximizes along the TS mode:       0.00009258
Searching for lambda that minimizes along all other modes
In cycle   1: lambdaN =  -0.00001418   step =   0.00001418
In cycle   2: lambdaN =  -0.00001418   step =   0.00000000
Lambda that minimizes along all other modes:  -0.00001418
The final length of the internal step   ....       0.0365
Converting the step to Cartesian space:
 Initial RMS(Int)=    0.0077802161
Transforming coordinates:
 Iter   0:  RMS(Cart)=    0.0053828260 RMS(Int)=    0.0077805103
done
Storing new coordinates                 .... done

                                .--------------------.
          ----------------------|Geometry convergence|-------------------------
          Item                value                   Tolerance       Converged
          ---------------------------------------------------------------------
          RMS gradient        0.0006645348            0.0001000000      NO
          MAX gradient        0.0017938449            0.0003000000      NO
          RMS step            0.0077802161            0.0020000000      NO
          MAX step            0.0259541485            0.0040000000      NO
          -------------------------------------------------------------------------
          ........................................................
          Max(Bonds)      0.0137      Max(Angles)    0.23
          Max(Dihed)        0.63      Max(Improp)    0.00
          ---------------------------------------------------------------------

The optimization has not yet converged - more geometry cycles are needed


    ---------------------------------------------------------------------------
                         Redundant Internal Coordinates
                            (Angstroem and degrees)

        Definition                    Value    dE/dq     Step     New-Value  comp.(TS mode)
    ----------------------------------------------------------------------------
     1. B(C   1,C   0)                1.4152  0.000430  0.0020    1.4172   
     2. B(H   2,C   1)                1.1086  0.000120  0.0003    1.1089   
     3. B(H   3,C   1)                1.5091 -0.001794 -0.0095    1.4995          0.55
     4. B(H   3,C   0)                1.5962  0.000054  0.0030    1.5992   
     5. B(H   4,C   1)                1.1023 -0.000631  0.0010    1.1033   
     6. B(O   5,H   3)                1.3021  0.001405  0.0137    1.3158          0.67
     7. B(O   5,C   1)                2.2348 -0.000267  0.0006    2.2353   
     8. B(O   5,C   0)                1.2907 -0.000156 -0.0022    1.2885   
     9. B(H   6,C   0)                1.1126  0.000177  0.0001    1.1127   
    10. A(C   1,C   0,H   6)          129.72  0.000019   -0.06    129.66   
    11. A(O   5,C   0,H   6)          118.97  0.000327    0.00    118.98   
    12. A(C   1,C   0,O   5)          111.27 -0.000350    0.05    111.32   
    13. A(H   2,C   1,H   4)          113.72  0.000081   -0.20    113.52   
    14. A(C   0,C   1,H   4)          123.30  0.000471   -0.14    123.15   
    15. A(C   0,C   1,H   2)          112.06 -0.000621   -0.07    112.00   
    16. A(C   0,O   5,H   3)           75.99 -0.000374   -0.23     75.76   
    17. D(H   2,C   1,C   0,O   5)     63.28  0.000761    0.63     63.92          0.28
    18. D(H   4,C   1,C   0,O   5)   -154.96  0.000640   -0.06   -155.02   
    19. D(H   4,C   1,C   0,H   6)     22.87  0.000519   -0.20     22.67   
    20. D(H   2,C   1,C   0,H   6)   -118.89  0.000640    0.50   -118.39   
    21. D(H   3,O   5,C   0,H   6)   -167.46  0.000811   -0.08   -167.53   
    22. D(H   3,O   5,C   0,C   1)     10.63  0.000699   -0.20     10.43   
    ----------------------------------------------------------------------------

Geometry step timings:
Preparation and reading OPT file:      0.000 s ( 0.427 %)
Internal coordinates            :      0.000 s ( 0.533 %)
B/P matrices and projection     :      0.000 s ( 3.004 %)
Hessian update/contruction      :      0.005 s (87.413 %)
Making the step                 :      0.000 s ( 3.164 %)
Converting the step to Cartesian:      0.000 s ( 0.622 %)
Storing new data                :      0.000 s ( 0.533 %)
Checking convergence            :      0.000 s ( 0.729 %)
Final printing                  :      0.000 s ( 3.538 %)
Total time                      :      0.006 s

Time for energy+gradient        :      3.264 s
Time for complete geometry iter :      3.438 s

         *************************************************************
         *                GEOMETRY OPTIMIZATION CYCLE   2            *
         *************************************************************
---------------------------------
CARTESIAN COORDINATES (ANGSTROEM)
---------------------------------
  C     -0.663695    0.280685   -0.096303
  C      0.509505   -0.511095   -0.168580
  H      0.835939   -0.862036    0.831372
  H      0.745868    0.861801    0.386270
  H      0.695592   -1.241817   -0.973931
  O     -0.455947    1.366760    0.565050
  H     -1.667263    0.105701   -0.543878

----------------------------
CARTESIAN COORDINATES (A.U.)
----------------------------
  NO LB      ZA    FRAG     MASS         X           Y           Z
   0 C     6.0000    0    12.011   -1.254201    0.530418   -0.181986
   1 C     6.0000    0    12.011    0.962825   -0.965829   -0.318570
   2 H     1.0000    0     1.008    1.579697   -1.629011    1.571065
   3 H     1.0000    0     1.008    1.409487    1.628567    0.729944
   4 H     1.0000    0     1.008    1.314479   -2.346694   -1.840464
   5 O     8.0000    0    15.999   -0.861615    2.582803    1.067790
   6 H     1.0000    0     1.008   -3.150671    0.199746   -1.027780

--------------------------------
INTERNAL COORDINATES (ANGSTROEM)
--------------------------------
 C      0   0   0     0.000000000000     0.00000000     0.00000000
 C      1   0   0     1.417228570339     0.00000000     0.00000000
 H      2   1   0     1.108883694706   111.99439475     0.00000000
 H      2   1   3     1.499522388446    66.42872267   286.40914723
 H      2   1   3     1.103256289990   123.15383270   141.06315587
 O      1   2   3     1.288451571901   111.32342277    63.91818602
 H      1   2   3     1.112695867670   129.66163222   241.60617863

---------------------------
INTERNAL COORDINATES (A.U.)
---------------------------
 C      0   0   0     0.000000000000     0.00000000     0.00000000
 C      1   0   0     2.678173867109     0.00000000     0.00000000
 H      2   1   0     2.095486497365   111.99439475     0.00000000
 H      2   1   3     2.833686645847    66.42872267   286.40914723
 H      2   1   3     2.084852243607   123.15383270   141.06315587
 O      1   2   3     2.434820607713   111.32342277    63.91818602
 H      1   2   3     2.102690460241   129.66163222   241.60617863



           ************************************************************
           *        Program running with 8 parallel MPI-processes     *
           *              working on a common directory               *
           ************************************************************
------------------------------------------------------------------------------
                   ___                                                        
                  /   \      - P O W E R E D   B Y -                         
                 /     \                                                     
                 |  |  |   _    _      __       _____    __    __             
                 |  |  |  | |  | |    /  \     |  _  \  |  |  /  |          
                  \  \/   | |  | |   /    \    | | | |  |  | /  /          
                 / \  \   | |__| |  /  /\  \   | |_| |  |  |/  /          
                |  |  |   |  __  | /  /__\  \  |    /   |      \           
                |  |  |   | |  | | |   __   |  |    \   |  |\   \          
                \     /   | |  | | |  |  |  |  | |\  \  |  | \   \       
                 \___/    |_|  |_| |__|  |__|  |_| \__\ |__|  \__/        
                                                                              
                      - O R C A' S   B I G   F R I E N D -                    
                                      &                                       
                       - I N T E G R A L  F E E D E R -                       
                                                                              
 v1 FN, 2020, v2 2021, v3 2022-2024                                           
------------------------------------------------------------------------------


----------------------
SHARK INTEGRAL PACKAGE
----------------------

Number of atoms                             ...      7
Number of basis functions                   ...     62
Number of shells                            ...     30
Maximum angular momentum                    ...      2
Integral batch strategy                     ... SHARK/LIBINT Hybrid
RI-J (if used) integral strategy            ... SPLIT-RIJ (Revised 2003 algorithm where possible)
Printlevel                                  ...      1
Contraction scheme used                     ... SEGMENTED contraction
Prescreening option                         ... SCHWARTZ
   Thresh                                   ... 2.500e-11
   Tcut                                     ... 2.500e-12
   Tpresel                                  ... 2.500e-12 
Coulomb Range Separation                    ... NOT USED
Exchange Range Separation                   ... NOT USED
Multipole approximations                    ... NOT USED
Finite Nucleus Model                        ... NOT USED
CABS basis                                  ... NOT available
Auxiliary Coulomb fitting basis             ... AVAILABLE
   # of basis functions in Aux-J            ...    191
   # of shells in Aux-J                     ...     65
   Maximum angular momentum in Aux-J        ...      4
Auxiliary J/K fitting basis                 ... NOT available
Auxiliary Correlation fitting basis         ... NOT available
Auxiliary 'external' fitting basis          ... NOT available

Checking pre-screening integrals            ... done (  0.0 sec) Dimension = 30
   => SHARK Basis and OBASIS are compatible. Storing Pre-screening
Shell pair information
Shell pair cut-off parameter TPreSel        ...   2.5e-12
Total number of shell pairs                 ...       465
Shell pairs after pre-screening             ...       464
Total number of primitive shell pairs       ...      1647
Primitive shell pairs kept                  ...      1432
          la=0 lb=0:    152 shell pairs
          la=1 lb=0:    170 shell pairs
          la=1 lb=1:     55 shell pairs
          la=2 lb=0:     51 shell pairs
          la=2 lb=1:     30 shell pairs
          la=2 lb=2:      6 shell pairs

Checking whether 4 symmetric matrices of dimension 62 fit in memory
:Max Core in MB      =    750.00
 MB in use           =      3.85
 MB left             =    746.15
 MB needed           =      0.06
 Data fit in memory  = YES
Calculating RI/J V-Matrix + Cholesky decomp.... done (  0.0 sec)
Calculating Nuclear repulsion               ... done (  0.0 sec) ENN=     71.102473470526 Eh

Diagonalization of the overlap matrix:
Smallest eigenvalue                        ... 4.030e-03
Time for diagonalization                   ...    0.001 sec
Threshold for overlap eigenvalues          ... 1.000e-07
Number of eigenvalues below threshold      ... 0
Time for construction of square roots      ...    0.003 sec
Total time needed                          ...    0.006 sec

-------------------
DFT GRID GENERATION
-------------------

General Integration Accuracy     IntAcc      ... 4.388
Radial Grid Type                 RadialGrid  ... OptM3 with GC (2021)
Angular Grid (max. ang.)         AngularGrid ... 4 (Lebedev-302)
Angular grid pruning method      GridPruning ... 4 (adaptive)
Weight generation scheme         WeightScheme... mBecke (2022)
Basis function cutoff            BFCut       ... 1.0000e-11
Integration weight cutoff        WCut        ... 1.0000e-14
Partially contracted basis set               ... off
Rotationally invariant grid construction     ... off
Angular grids for H and He will be reduced by one unit

Total number of grid points                  ...    31357
Total number of batches                      ...      494
Average number of points per batch           ...       63
Average number of grid points per atom       ...     4480
Grids setup in   0.5 sec
Initializing property integral containers    ... done (  0.0 sec)

SHARK setup successfully completed in   0.6 seconds

Maximum memory used throughout the entire STARTUP-calculation: 10.0 MB


           ************************************************************
           *        Program running with 8 parallel MPI-processes     *
           *              working on a common directory               *
           ************************************************************
Occupation numbers will be reassigned to an Aufbau configuration
             **** ENERGY FILE WAS UPDATED (input.en.tmp) ****
Finished Guess after   0.3 sec
Maximum memory used throughout the entire GUESS-calculation: 6.1 MB


           ************************************************************
           *        Program running with 8 parallel MPI-processes     *
           *              working on a common directory               *
           ************************************************************
----------------------------------------D-I-I-S--------------------------------------------
Iteration    Energy (Eh)           Delta-E    RMSDP     MaxDP     DIISErr   Damp  Time(sec)
-------------------------------------------------------------------------------------------
               ***  Starting incremental Fock matrix formation  ***
                              *** Initializing SOSCF ***
---------------------------------------S-O-S-C-F--------------------------------------
Iteration    Energy (Eh)           Delta-E    RMSDP     MaxDP     MaxGrad    Time(sec)
--------------------------------------------------------------------------------------
    1    -153.4310081017888479     0.00e+00  1.31e-03  6.56e-03  1.34e-03     0.3
               *** Restarting incremental Fock matrix formation ***
    2    -153.4311082575463558    -1.00e-04  1.56e-03  5.83e-03  1.02e-03     0.3
    3    -153.4310958727582772     1.24e-05  1.05e-03  4.83e-03  1.77e-03     0.2
    4    -153.4311241666741523    -2.83e-05  1.22e-03  4.82e-03  1.03e-03     0.3
    5    -153.4311350226043942    -1.09e-05  4.00e-04  1.43e-03  5.08e-04     0.3
    6    -153.4311369913894225    -1.97e-06  2.87e-04  9.80e-04  3.52e-04     0.2
    7    -153.4311387790192782    -1.79e-06  1.83e-04  6.94e-04  1.61e-04     0.2
    8    -153.4311391924202326    -4.13e-07  5.98e-05  2.50e-04  6.44e-05     0.3
    9    -153.4311393046027661    -1.12e-07  3.39e-05  1.24e-04  2.78e-05     0.3
   10    -153.4311393260154261    -2.14e-08  1.12e-05  3.42e-05  1.13e-05     0.2
   11    -153.4311393292217360    -3.21e-09  5.68e-06  2.25e-05  4.27e-06     0.2
                 **** Energy Check signals convergence ****

               *****************************************************
               *                     SUCCESS                       *
               *           SCF CONVERGED AFTER  11 CYCLES          *
               *****************************************************

             **** ENERGY FILE WAS UPDATED (input.en.tmp) ****

----------------
TOTAL SCF ENERGY
----------------

Total Energy       :       -153.43113933007885 Eh           -4175.07356 eV

Components:
Nuclear Repulsion  :         71.10247347052592 Eh            1934.79667 eV
Electronic Energy  :       -224.53361280060477 Eh           -6109.87022 eV
One Electron Energy:       -348.57151439814544 Eh           -9485.11312 eV
Two Electron Energy:        124.03790159754067 Eh            3375.24290 eV

Virial components:
Potential Energy   :       -305.49873728867709 Eh           -8313.04327 eV
Kinetic Energy     :        152.06759795859824 Eh            4137.96971 eV
Virial Ratio       :          2.00896667922546

DFT components:
N(Alpha)           :       11.999997520081 electrons
N(Beta)            :       11.999997520081 electrons
N(Total)           :       23.999995040161 electrons
E(X)               :      -19.816597677684 Eh       
E(C)               :       -0.789920667754 Eh       
E(XC)              :      -20.606518345438 Eh       

---------------
SCF CONVERGENCE
---------------

  Last Energy change         ...    3.2063e-09  Tolerance :   1.0000e-08
  Last MAX-Density change    ...    2.2522e-05  Tolerance :   1.0000e-07
  Last RMS-Density change    ...    5.6834e-06  Tolerance :   5.0000e-09
  Last DIIS Error            ...    2.6671e-03  Tolerance :   5.0000e-07
  Last Orbital Gradient      ...    4.2696e-06  Tolerance :   1.0000e-05
  Last Orbital Rotation      ...    2.5658e-05  Tolerance :   1.0000e-05


Total SCF time: 0 days 0 hours 0 min 3 sec 
Finished LeanSCF after   3.2 sec

Maximum memory used throughout the entire LEANSCF-calculation: 5.1 MB


-------------------------------------------------------------------------------
                          DFT DISPERSION CORRECTION                            
                                                                               
                              DFTD3 V3.1  Rev 1                                
                          USING Becke-Johnson damping                          
-------------------------------------------------------------------------------
-------------------------   ----------------
Dispersion correction           -0.003393244
-------------------------   ----------------


-------------------------   --------------------
FINAL SINGLE POINT ENERGY      -153.434532573959
-------------------------   --------------------



           ************************************************************
           *        Program running with 8 parallel MPI-processes     *
           *              working on a common directory               *
           ************************************************************
------------------------------------------------------------------------------
                         ORCA SCF GRADIENT CALCULATION
------------------------------------------------------------------------------

Nuc. rep. gradient        (SHARK) ... done (  0.0 sec)
HCore & Overlap gradient  (SHARK) ... done (  0.0 sec)
Split-RIJ-J gradient      (SHARK) ... done (  0.2 sec)
XC gradient                       ... done (  0.3 sec)
Dispersion correction             ... done (  0.1 sec)

-------------------
DISPERSION GRADIENT
-------------------

   1   C   :    0.000122741    0.000079218    0.000048536
   2   C   :    0.000099217    0.000585429    0.000264392
   3   H   :    0.000032703   -0.000030166   -0.000009555
   4   H   :   -0.000759625   -0.000379234   -0.000185116
   5   H   :    0.000037617   -0.000048100   -0.000018514
   6   O   :    0.000537492   -0.000221360   -0.000082069
   7   H   :   -0.000070145    0.000014212   -0.000017674

Difference to translation invariance:
           :   -0.0000000000   -0.0000000000    0.0000000000

Difference to rotation invariance:
           :   -0.0000000000   -0.0000000000   -0.0000000000

Norm of the Dispersion gradient    ...    0.0012479969
RMS gradient                       ...    0.0002723352
MAX gradient                       ...    0.0007596245

------------------
CARTESIAN GRADIENT
------------------

   1   C   :    0.000048065   -0.001141492   -0.000598426
   2   C   :   -0.000515483   -0.000511729   -0.000504628
   3   H   :    0.000165901    0.000222973    0.000128156
   4   H   :   -0.001333092    0.001110271    0.000637900
   5   H   :   -0.000095960    0.000040270    0.000051120
   6   O   :    0.001686684    0.000296172    0.000352830
   7   H   :    0.000043885   -0.000016465   -0.000066951

Difference to translation invariance:
           :    0.0000000000   -0.0000000000   -0.0000000000

Difference to rotation invariance:
           :   -0.0000125362    0.0000351904    0.0000333099

Norm of the Cartesian gradient     ...    0.0030055476
RMS gradient                       ...    0.0006558643
MAX gradient                       ...    0.0016866845

-------
TIMINGS
-------

Total SCF gradient time     ....        0.662 sec

Densities                   ....       0.000 sec  (  0.1%)
One electron gradient       ....       0.013 sec  (  2.0%)
RI-J Coulomb gradient       ....       0.151 sec  ( 22.7%)
XC gradient                 ....       0.332 sec  ( 50.2%)

Maximum memory used throughout the entire SCFGRAD-calculation: 25.9 MB
------------------------------------------------------------------------------
                         ORCA GEOMETRY RELAXATION STEP
------------------------------------------------------------------------------

Reading the OPT-File                    .... done
Getting information on internals        .... done
Copying old internal coords+grads       .... done
Making the new internal coordinates     .... (2022 redundants) done
Validating the new internal coordinates .... (2022 redundants) done
Calculating the B-matrix                .... done
Calculating the G,G- and P matrices     .... done
Transforming gradient to internals      .... done
Projecting the internal gradient        .... done
Number of atoms                         ....   7
Number of internal coordinates          ....  22
Current Energy                          ....  -153.434532574 Eh
Current gradient norm                   ....     0.003005548 Eh/bohr
Maximum allowed component of the step   ....  0.300
Current trust radius                    ....  0.100
Updating the Hessian (Bofill)           .... done
Diagonalizing the Hessian               .... done
Dimension of the hessian                ....  22
Lowest eigenvalues of the Hessian:
 -0.134920836  0.015334647  0.029179568  0.040843290  0.055986234
Hessian has   1 negative eigenvalues
Taking P-RFO step
Searching for lambda that maximizes along the lowest mode
TS mode is mode number   0 with eigenvalue  -0.13492084 and components:
   1.   -0.12803260
   2.   -0.01218121
   3.    0.53096569
   4.   -0.07738442
   5.   -0.01528108
   6.   -0.70018231
   7.    0.00316641
   8.    0.15941061
   9.   -0.01528296
  10.    0.02547793
  11.   -0.01252965
  12.   -0.01221137
  13.    0.04582229
  14.    0.00703315
  15.    0.03705179
  16.    0.13503128
  17.   -0.24666014
  18.   -0.09342025
  19.   -0.07210934
  20.   -0.22534922
  21.   -0.13425165
  22.   -0.11453156

Lambda that maximizes along the TS mode:       0.00002616
Searching for lambda that minimizes along all other modes
In cycle   1: lambdaN =  -0.00000380   step =   0.00000380
In cycle   2: lambdaN =  -0.00000380   step =   0.00000000
Lambda that minimizes along all other modes:  -0.00000380
The final length of the internal step   ....       0.0158
Converting the step to Cartesian space:
 Initial RMS(Int)=    0.0033585986
Transforming coordinates:
 Iter   0:  RMS(Cart)=    0.0029669312 RMS(Int)=    0.0033593599
done
Storing new coordinates                 .... done
The predicted energy change is          ....     0.000011185
Previously predicted energy change      ....     0.000039249
Actually observed energy change         ....     0.000007635
Ratio of predicted to observed change   ....     0.194535297
New trust radius                        ....     0.100000000

                                .--------------------.
          ----------------------|Geometry convergence|-------------------------
          Item                value                   Tolerance       Converged
          ---------------------------------------------------------------------
          Energy change       0.0000076352            0.0000050000      NO
          RMS gradient        0.0004564671            0.0001000000      NO
          MAX gradient        0.0014851197            0.0003000000      NO
          RMS step            0.0033585986            0.0020000000      NO
          MAX step            0.0089281745            0.0040000000      NO
          -------------------------------------------------------------------------
          ........................................................
          Max(Bonds)      0.0047      Max(Angles)    0.14
          Max(Dihed)        0.39      Max(Improp)    0.00
          ---------------------------------------------------------------------

The optimization has not yet converged - more geometry cycles are needed


    ---------------------------------------------------------------------------
                         Redundant Internal Coordinates
                            (Angstroem and degrees)

        Definition                    Value    dE/dq     Step     New-Value  comp.(TS mode)
    ----------------------------------------------------------------------------
     1. B(C   1,C   0)                1.4172 -0.000534 -0.0007    1.4165   
     2. B(H   2,C   1)                1.1089  0.000095 -0.0002    1.1087   
     3. B(H   3,C   1)                1.4995  0.000714  0.0047    1.5042          0.53
     4. B(H   3,C   0)                1.5992 -0.000097  0.0005    1.5997   
     5. B(H   4,C   1)                1.1033 -0.000080 -0.0002    1.1031   
     6. B(O   5,H   3)                1.3158 -0.001485 -0.0038    1.3120          0.70
     7. B(O   5,C   1)                2.2353  0.000039  0.0001    2.2354   
     8. B(O   5,C   0)                1.2885  0.001074  0.0006    1.2891   
     9. B(H   6,C   0)                1.1127 -0.000010 -0.0001    1.1126   
    10. A(C   1,C   0,H   6)          129.66  0.000067    0.02    129.69   
    11. A(O   5,C   0,H   6)          118.98  0.000194   -0.03    118.94   
    12. A(C   1,C   0,O   5)          111.32 -0.000262    0.01    111.34   
    13. A(H   2,C   1,H   4)          113.52  0.000118    0.04    113.55   
    14. A(C   0,C   1,H   4)          123.15 -0.000058    0.03    123.18   
    15. A(C   0,C   1,H   2)          111.99  0.000026    0.03    112.02   
    16. A(C   0,O   5,H   3)           75.76  0.000094    0.14     75.90   
    17. D(H   2,C   1,C   0,O   5)     63.92 -0.000235   -0.39     63.53   
    18. D(H   4,C   1,C   0,O   5)   -155.02 -0.000057   -0.23   -155.25   
    19. D(H   4,C   1,C   0,H   6)     22.67 -0.000078   -0.17     22.50   
    20. D(H   2,C   1,C   0,H   6)   -118.39 -0.000256   -0.33   -118.73   
[...]
   Autom. constraints  SOSCFAutoConstrain .... off
 Level Shifting         CNVShift        .... on
   Level shift para.    LevelShift      ....    0.2500
   Turn off err/grad.   ShiftErr        ....    0.0010
 Zerner damping         CNVZerner       .... off
 Static damping         CNVDamp         .... on
   Fraction old density DampFac         ....    0.7000
   Max. Damping (<1)    DampMax         ....    0.9800
   Min. Damping (>=0)   DampMin         ....    0.0000
   Turn off err/grad.   DampErr         ....    0.1000

SCF Procedure:
 Maximum # iterations   MaxIter         ....   125
 SCF integral mode      SCFMode         .... Direct
   Integral package                     .... SHARK and LIBINT hybrid scheme
 Reset frequency        DirectResetFreq ....    20
 Integral Threshold     Thresh          ....  2.500e-11 Eh
 Primitive CutOff       TCut            ....  2.500e-12 Eh

Convergence Tolerance:
 Convergence Check Mode ConvCheckMode   .... Total+1el-Energy
 Convergence forced     ConvForced      .... 0
 Energy Change          TolE            ....  1.000e-08 Eh
 1-El. energy change                    ....  1.000e-05 Eh
 Orbital Gradient       TolG            ....  1.000e-05
 Orbital Rotation angle TolX            ....  1.000e-05
 DIIS Error             TolErr          ....  5.000e-07

---------------------
INITIAL GUESS: MOREAD
---------------------
Guess MOs are being read from file: input.gbw
Input Geometry matches current geometry (good)
Input basis set matches current basis set (good)
Occupation numbers will be reassigned to an Aufbau configuration
MOs were renormalized
MOs were reorthogonalized (Cholesky)
                      ------------------
                      INITIAL GUESS DONE (   0.0 sec)
                      ------------------
             **** ENERGY FILE WAS UPDATED (input.en.tmp) ****
Finished Guess after   0.3 sec
Maximum memory used throughout the entire GUESS-calculation: 6.1 MB


           ************************************************************
           *        Program running with 8 parallel MPI-processes     *
           *              working on a common directory               *
           ************************************************************

-------------------------------------------------------------------------------------------
                                      ORCA LEAN-SCF
                              memory conserving SCF solver
-------------------------------------------------------------------------------------------

----------------------------------------D-I-I-S--------------------------------------------
Iteration    Energy (Eh)           Delta-E    RMSDP     MaxDP     DIISErr   Damp  Time(sec)
-------------------------------------------------------------------------------------------
               ***  Starting incremental Fock matrix formation  ***
                              *** Initializing SOSCF ***
---------------------------------------S-O-S-C-F--------------------------------------
Iteration    Energy (Eh)           Delta-E    RMSDP     MaxDP     MaxGrad    Time(sec)
--------------------------------------------------------------------------------------
    1    -153.4311267621197885     0.00e+00  1.21e-04  3.92e-04  5.21e-05     0.4
               *** Restarting incremental Fock matrix formation ***
    2    -153.4311276732369151    -9.11e-07  7.34e-05  2.14e-04  4.30e-05     0.3
    3    -153.4311276610827122     1.22e-08  5.57e-05  2.29e-04  8.56e-05     0.3
    4    -153.4311277133149929    -5.22e-08  5.63e-05  2.34e-04  4.23e-05     0.3
    5    -153.4311277520628778    -3.87e-08  1.76e-05  9.05e-05  2.20e-05     0.2
    6    -153.4311277543181404    -2.26e-09  1.32e-05  4.15e-05  2.57e-05     0.2
                 **** Energy Check signals convergence ****

               *****************************************************
               *                     SUCCESS                       *
               *           SCF CONVERGED AFTER   6 CYCLES          *
               *****************************************************

             **** ENERGY FILE WAS UPDATED (input.en.tmp) ****

----------------
TOTAL SCF ENERGY
----------------

Total Energy       :       -153.43112776154476 Eh           -4175.07324 eV

Components:
Nuclear Repulsion  :         71.10520244901009 Eh            1934.87093 eV
Electronic Energy  :       -224.53633021055487 Eh           -6109.94417 eV
One Electron Energy:       -348.57606647196633 Eh           -9485.23699 eV
Two Electron Energy:        124.03973626141146 Eh            3375.29282 eV

Virial components:
Potential Energy   :       -305.49863404184498 Eh           -8313.04046 eV
Kinetic Energy     :        152.06750628030019 Eh            4137.96722 eV
Virial Ratio       :          2.00896721143524

DFT components:
N(Alpha)           :       11.999997278137 electrons
N(Beta)            :       11.999997278137 electrons
N(Total)           :       23.999994556274 electrons
E(X)               :      -19.816627846565 Eh       
E(C)               :       -0.789930821684 Eh       
E(XC)              :      -20.606558668249 Eh       

---------------
SCF CONVERGENCE
---------------

  Last Energy change         ...    2.2553e-09  Tolerance :   1.0000e-08
  Last MAX-Density change    ...    4.1474e-05  Tolerance :   1.0000e-07
  Last RMS-Density change    ...    1.3172e-05  Tolerance :   5.0000e-09
  Last DIIS Error            ...    3.3811e-04  Tolerance :   5.0000e-07
  Last Orbital Gradient      ...    2.5726e-05  Tolerance :   1.0000e-05
  Last Orbital Rotation      ...    4.9469e-05  Tolerance :   1.0000e-05


----------------
ORBITAL ENERGIES
----------------

  NO   OCC          E(Eh)            E(eV) 
   0   2.0000     -18.782302      -511.0924 
   1   2.0000      -9.992588      -271.9121 
   2   2.0000      -9.889100      -269.0961 
   3   2.0000      -0.966812       -26.3083 
   4   2.0000      -0.660677       -17.9779 
   5   2.0000      -0.536952       -14.6112 
   6   2.0000      -0.450949       -12.2710 
   7   2.0000      -0.402930       -10.9643 
   8   2.0000      -0.380777       -10.3615 
   9   2.0000      -0.339247        -9.2314 
  10   2.0000      -0.284806        -7.7500 
  11   2.0000      -0.198775        -5.4089 
  12   0.0000      -0.085744        -2.3332 
  13   0.0000       0.036912         1.0044 
  14   0.0000       0.061679         1.6784 
  15   0.0000       0.081780         2.2253 
  16   0.0000       0.115735         3.1493 
  17   0.0000       0.188682         5.1343 
  18   0.0000       0.253242         6.8911 
  19   0.0000       0.336128         9.1465 
  20   0.0000       0.375078        10.2064 
  21   0.0000       0.446191        12.1415 
  22   0.0000       0.469315        12.7707 
*Only the first 10 virtual orbitals were printed.
-------
TIMINGS
-------

Total SCF time: 0 days 0 hours 0 min 2 sec 

Total time                  ....       2.219 sec
Sum of individual times     ....       1.919 sec  ( 86.4%)

SCF preparation             ....       0.163 sec  (  7.3%)
Fock matrix formation       ....       1.615 sec  ( 72.7%)
  Startup                   ....       0.041 sec  (  2.5% of F)
  Split-RI-J                ....       0.127 sec  (  7.9% of F)
  XC integration            ....       1.523 sec  ( 94.4% of F)
    XC Preparation          ....       0.000 sec  (  0.0% of XC)
    Basis function eval.    ....       0.125 sec  (  8.2% of XC)
    Density eval.           ....       0.074 sec  (  4.9% of XC)
    XC-Functional eval.     ....       0.051 sec  (  3.3% of XC)
    XC-Potential eval.      ....       0.091 sec  (  6.0% of XC)
Diagonalization             ....       0.000 sec  (  0.0%)
Density matrix formation    ....       0.028 sec  (  1.3%)
Total Energy calculation    ....       0.007 sec  (  0.3%)
Population analysis         ....       0.000 sec  (  0.0%)
Orbital Transformation      ....       0.007 sec  (  0.3%)
Orbital Orthonormalization  ....       0.000 sec  (  0.0%)
DIIS solution               ....       0.018 sec  (  0.8%)
SOSCF solution              ....       0.082 sec  (  3.7%)
Finished LeanSCF after   2.3 sec

Maximum memory used throughout the entire LEANSCF-calculation: 5.2 MB


-------------------------------------------------------------------------------
                          DFT DISPERSION CORRECTION                            
                                                                               
                              DFTD3 V3.1  Rev 1                                
                          USING Becke-Johnson damping                          
-------------------------------------------------------------------------------
The PBE functional is recognized
Active option DFTDOPT                   ...         4   

molecular C6(AA) [au] = 414.297201 


            DFT-D V3
 parameters
 s6 scaling factor         :     1.0000 
 a1 scaling factor         :     0.4289 
 s8 scaling factor         :     0.7875 
 a2 scaling factor         :     4.4407 
 ad hoc parameters k1-k3   :    16.0000     1.3333    -4.0000 

 Edisp/kcal,au: -2.130310611021  -0.003394865690 
 E6   /kcal   :  -1.538110981 
 E8   /kcal   :  -0.592199630 
 % E8         :  27.798745710 

-------------------------   ----------------
Dispersion correction           -0.003394866
-------------------------   ----------------


-------------------------   --------------------
FINAL SINGLE POINT ENERGY      -153.434522627235
-------------------------   --------------------

                                *** OPTIMIZATION RUN DONE ***



                    ***********************HURRAY************************
                    ***        THE TS OPTIMIZATION HAS CONVERGED      ***
                    *****************************************************



---------------------------------------------------------------
                      PATH SUMMARY FOR NEB-TS             
---------------------------------------------------------------
All forces in Eh/Bohr. Global forces for TS.

Image     E(Eh)   dE(kcal/mol)  max(|Fp|)  RMS(Fp)
  0    -153.53120     0.00       0.00505   0.00313
  1    -153.49953    19.87       0.00163   0.00076
  2    -153.45556    47.47       0.00146   0.00057
  3    -153.43454    60.65       0.00031   0.00014 <= CI
 TS    -153.43452    60.66       0.00020   0.00009 <= TS
  4    -153.46176    43.58       0.00149   0.00058
  5    -153.49407    23.30       0.00138   0.00073
  6    -153.51375    10.95       0.01252   0.00448
----------
STATISTICS
----------

For the individual parts of the NEB, NEB-CI or NEB-TS run:

Number of iterations:
     NEB                               ... 13  72.2%
     TS optimization                   ... 5  27.8%
Number of SCF / gradient calculations:
     NEB                               ... 87  94.6%
     TS optimization                   ... 5  5.4%

----------
 TIMINGS
----------

For the individual parts of the NEB, NEB-CI or NEB-TS run:

Total                                  ...      148.728 sec
NEB                                    ...      125.327 sec  84.3%
TS Optimization                        ...       23.401 sec  15.7%



           ************************************************************
           *        Program running with 8 parallel MPI-processes     *
           *              working on a common directory               *
           ************************************************************

------------------------------------------------------------------------------
                              ORCA PROPERTY CALCULATIONS
------------------------------------------------------------------------------

GBWName                                 ... input.gbw
Number of atoms                         ...      7
Number of basis functions               ...     62
Max core memory                         ...    750 MB

Electric properties:
Dipole moment                           ... YES
Quadrupole moment                       ...  NO
Static polarizability (Dipole/Dipole)   ...  NO
Static polarizability (Dipole/Quad.)    ...  NO
Static polarizability (Quad./Quad.)     ...  NO
Static polarizability (Velocity)        ...  NO
Static hyperpolarizability              ...  NO

Atomic electric properties:
Dipole moment                           ...  NO
Quadrupole moment                       ...  NO
Static polarizability                   ...  NO

Choice of electric origin               ... Center of mass
Position of electric origin             ...    -0.366063     0.768721     0.238141

General magnetic properties:
Magnetizability                         ...  NO

EPR properties:
g-Tensor (aka g-matrix)                 ...  NO
Zero-Field splitting spin-orbit         ...  NO
Zero-field splitting spin-spin          ...  NO
Hyperfine couplings                     ...  NO (   0 nuclei)
Quadrupole couplings                    ...  NO (   0 nuclei)
Contact density                         ...  NO (   0 nuclei)

NMR properties:
Chemical shifts                         ...  NO (   0 nuclei)
Spin-rotation constants                 ...  NO (   0 nuclei)
Spin-spin couplings                     ...  NO (   0 nuclei,    0 pairs)

Choice of magnetic origin               ... GIAO
Position of magnetic origin             ...     0.000000     0.000000     0.000000

Properties with geometric perturbations:
SCF Hessian                             ...  NO
IR spectrum                             ...  NO
VCD spectrum                            ...  NO
X-ray spectroscopy properties:
SCF XES/XAS/RIXS spectra                ...  NO

SCF SOC stabilization energy            ...  NO
Diagonal Born-Oppenheimer correction    ...  NO

-------------
DIPOLE MOMENT
-------------

Method             : SCF
Type of density    : Electron Density
Multiplicity       :   1
Irrep              :   0
Energy             :  -153.4311277615447580 Eh
Basis              : AO
                                X                 Y                 Z
Electronic contribution:     -1.454297885       2.081552091       0.588429830
Nuclear contribution   :      1.295614895      -2.575983630      -0.747246841
                        -----------------------------------------
Total Dipole Moment    :     -0.158682990      -0.494431539      -0.158817011
                        -----------------------------------------
Magnitude (a.u.)       :      0.543015360
Magnitude (Debye)      :      1.380235356



--------------------
Rotational spectrum 
--------------------
 
Rotational constants in cm-1:             1.614007             0.402536             0.335008 
Rotational constants in MHz :         48386.698957         12067.740552         10043.277269 

Dipole components along the rotational axes: 
x,y,z [a.u.] :    -0.395709    -0.335525     0.160322 
x,y,z [Debye]:    -1.005813    -0.852836     0.407506 

 

Dipole moment calculation done in   0.0 sec 

Maximum memory used throughout the entire PROP-calculation: 4.1 MB

--------------------------------
SUGGESTED CITATIONS FOR THIS RUN
--------------------------------

Below you find a list of papers that are relevant to this ORCA run
We neither can nor want to force you to cite these papers, but we appreciate if you do
You receive ORCA, which is the product of decades of hard work by many enthusiastic individuals, for free
The only thing we kindly ask in return is that you cite our papers,
We deeply appreciate it, if you show your appreciation for ORCA by not just citing the generic ORCA reference.

Please note that relegating all ORCA citations to the supporting information does *not* help us.
SI sections are not indexed - citations you put there will not count into any citation statistics
But we need these citations in order to attract the funding resources that allow us to do what we are doing

Therefore, if you are a happy ORCA user, please consider citing a few of the papers listed below in the main body of your paper

In addition to the list printed below, the program has created the file input.bibtex that contains the list in bibtex format
You can import this file easily into all common literature databanks and citation aid programs


List of essential papers. We consider these as the minimum necessary citations

  1. Neese, F.
     Software update: the ORCA program system, version 6.0
     WIRES Comput. Molec. Sci. 2025 15(1), e70019
     doi.org/10.1002/wcms.7019

List of papers to cite with high priority. The work reported in these papers was absolutely
necessary for this run to complete.
Our perspective: the developers of density functionals and basis sets usually get cited in chemistry papers
Good! But without the algorithms to do something with them, the functionals or basis sets would not do anything.
Hence, in our opinion, the algorithm design and method developments papers are equally worthy of getting cited

  1. Neese, F.
     An improvement of the resolution of the identity approximation for the formation of the Coulomb matrix
     J. Comp. Chem. 2003 24(14), 1740-1747
     doi.org/10.1002/jcc.10318
  2. Grimme, S.; Antony, J.; Ehrlich, S.; Krieg, H.
     A consistent and accurate ab initio parametrization of density functional dispersion correction (DFT-D) for the 94 elements H-Pu
     J. Chem. Phys. 2010 132 , 154104
     doi.org/10.1063/1.3382344
  3. Grimme, S.; Ehrlich, S.; Goerigk, L.
     Effect of the damping function in dispersion corrected density functional theory
     J. Comput. Chem. 2011 32(7), 1456-1465
     doi.org/10.1002/jcc.21759
  4. Asgeirsson, V.; Orri Birgisson, B.; Björnsson, R.; Becker, U.; Neese, F.; Riplinger, C.; Jonsson, H.
     Nudged Elastic Band Method for Molecular Reactions Using Energy-Weighted Springs Combined with Eigenvector Following
     J. Chem. Theory Comput. 2021 17(8), 4929-4945
     doi.org/10.1021/acs.jctc.1c00462
  5. Neese, F.
     The SHARK Integral Generation and Digestion System
     J. Comp. Chem. 2022 44(3), 381
     doi.org/10.1002/jcc.26942
  6. Schmerwitz, Y.L.A.; Asgeirsson, V.; Jonsson, H.
     Improved Initialization of Optimal Path Calculations
     Using Sequential Traversal over the
     Image-Dependent Pair Potential Surface
     J. Chem. Theory Comput. 2023 20(1), 155-163
     doi.org/10.1021/acs.jctc.3c01111

List of suggested additional citations. These are papers that are important in the 'surrounding' of 
of this run, or papers that preceded the highly important papers. If you like your results we are grateful for a citation.

  1. Neese, F.
     The ORCA program system
     WIRES Comput. Molec. Sci. 2012 2(1), 73-78
     doi.org/10.1002/wcms.81
  2. Neese, F.
     Software update: the ORCA program system, version 4.0
     WIRES Comput. Molec. Sci. 2018 8(1), 1-6
     doi.org/10.1002/wcms.1327
  3. Neese, F.; Wennmohs, F.; Becker, U.; Riplinger, C.
     The ORCA quantum chemistry program package
     J. Chem. Phys. 2020 152(22), 224108
     doi.org/10.1063/5.0004608
  4. Neese, F.
     Software update: The ORCA program system—Version 5.0
     WIRES Comput. Molec. Sci. 2022 12(1), e1606
     doi.org/10.1002/wcms.1606

List of optional additional citations

  1. Neese, F.
     Approximate second-order SCF convergence for spin unrestricted wavefunctions
     Chem. Phys. Lett. 2000 325(1-3), 93-98
     doi.org/10.1016/s0009-2614(00)00662-x

Timings for individual modules:

Sum of individual times          ...      165.089 sec (=   2.751 min)
Startup calculation              ...        5.597 sec (=   0.093 min)   3.4 %
SCF iterations                   ...       26.934 sec (=   0.449 min)  16.3 %
Property calculations            ...        0.234 sec (=   0.004 min)   0.1 %
SCF Gradient evaluation          ...        6.978 sec (=   0.116 min)   4.2 %
Geometry relaxation              ...        0.020 sec (=   0.000 min)   0.0 %
NEB Iterations                   ...      125.327 sec (=   2.089 min)  75.9 %
                             ****ORCA TERMINATED NORMALLY****
TOTAL RUN TIME: 0 days 0 hours 2 minutes 30 seconds 885 msec
