
                                 *****************
                                 * O   R   C   A *
                                 *****************

                                            #,                                       
                                            ###                                      
                                            ####                                     
                                            #####                                    
                                            ######                                   
                                           ########,                                 
                                     ,,################,,,,,                         
                               ,,#################################,,                 
                          ,,##########################################,,             
                       ,#########################################, ''#####,          
                    ,#############################################,,   '####,        
                  ,##################################################,,,,####,       
                ,###########''''           ''''###############################       
              ,#####''   ,,,,##########,,,,          '''####'''          '####       
            ,##' ,,,,###########################,,,                        '##       
           ' ,,###''''                  '''############,,,                           
         ,,##''                                '''############,,,,        ,,,,,,###''
      ,#''                                            '''#######################'''  
     '                                                          ''''####''''         
             ,#######,   #######,   ,#######,      ##                                
            ,#'     '#,  ##    ##  ,#'     '#,    #''#        ,####,   ,####,        
            ##       ##  ##   ,#'  ##            #'  '#       #'       #'  '#        
            ##       ##  #######   ##           ,######,      #####,   #    #        
            '#,     ,#'  ##    ##  '#,     ,#' ,#      #,     #,   #   #,  ,#        
             '#######'   ##     ##  '#######'  #'      '#     '####' # '####'        



                #########################################################
                #                        -***-                          #
                #          Department of theory and spectroscopy        #
                #                                                       #
                #                      Frank Neese                      #
                #                                                       #
                #     Directorship, Architecture, Infrastructure        #
                #                    SHARK, DRIVERS                     #
                #        Core code/Algorithms in most modules           #
                #                                                       #
                #        Max Planck Institute fuer Kohlenforschung      #
                #                Kaiser Wilhelm Platz 1                 #
                #                 D-45470 Muelheim/Ruhr                 #
                #                      Germany                          #
                #                                                       #
                #                  All rights reserved                  #
                #                        -***-                          #
                #########################################################


                         Program Version 6.0.1  -  RELEASE   -


 With contributions from (in alphabetic order):
[Max-Planck-Institut fuer Kohlenforschung]                               
  Daniel Aravena         : Magnetic Suceptibility                        
  Michael Atanasov       : Ab Initio Ligand Field Theory (pilot matlab implementation)
  Alexander A. Auer      : GIAO ZORA, VPT2 properties, NMR spectrum      
  Ute Becker             : All parallelization in ORCA, NUMFREQ, NUMCALC 
  Giovanni Bistoni       : ED, misc. LED, open-shell LED, HFLD           
  Martin Brehm           : Molecular dynamics                            
  Dmytro Bykov           : pre 5.0 version of the SCF Hessian            
  Marcos Casanova-Páez   : Triplet and SCS-CIS(D). UHF-(DLPNO)-IP/EA/STEOM-CCSD. UHF-CVS-IP/STEOM-CCSD   
  Vijay G. Chilkuri      : MRCI spin determinant printing, contributions to CSF-ICE 
  Pauline Colinet        : FMM embedding                                 
  Dipayan Datta          : RHF DLPNO-CCSD density                        
  Achintya Kumar Dutta   : EOM-CC, STEOM-CC                              
  Nicolas Foglia         : Exact transition moments, OPA infrastructure, MCD improvements    
  Dmitry Ganyushin       : Spin-Orbit,Spin-Spin,Magnetic field MRCI      
  Miquel Garcia-Rates    : C-PCM and meta-GGA Hessian, CCSD/C-PCM, Gaussian charge scheme 
  Tiago L. C. Gouveia    : GS-ROHF, GS-ROCIS                             
  Yang Guo               : DLPNO-NEVPT2, F12-NEVPT2, CIM, IAO-localization        
  Andreas Hansen         : Spin unrestricted coupled pair/coupled cluster methods 
  Ingolf Harden          : AUTO-CI MPn and infrastructure                
  Benjamin Helmich-Paris : MC-RPA, TRAH-(SCF,CASSCF), AVAS, COSX integrals, SCF dyn. polar. 
  Lee Huntington         : MR-EOM, pCC                                   
  Robert Izsak           : Overlap fitted RIJCOSX, COSX-SCS-MP3, EOM     
  Riya Kayal             : Wick's Theorem for AUTO-CI, AUTO-CI UHF-CCSDT 
  Emily Kempfer          : AUTO-CI, RHF CISDT and CCSDT                  
  Christian Kollmar      : KDIIS, OOCD, Brueckner-CCSD(T), CCSD density, CASPT2, CASPT2-K, improved NEVPT2 
  Axel Koslowski         : Symmetry handling                             
  Simone Kossmann        : meta-GGA functionals, TD-DFT gradient, OOMP2, (MP2 Hessian; deprecated post 5.0) 
  Lucas Lang             : DCDCAS                                        
  Marvin Lechner         : AUTO-CI (C++ implementation), FIC-MRCC        
  Spencer Leger          : CASSCF response                               
  Dagmar Lenk            : GEPOL surface, SMD, ORCA-2-JSON               
  Dimitrios Liakos       : Extrapolation schemes; Compound Job, initial MDCI parallelization 
  Dimitrios Manganas     : Further ROCIS development; embedding schemes. LFT, Crystal Embedding 
  Dimitrios Pantazis     : SARC Basis sets                               
  Anastasios Papadopoulos: AUTO-CI, single reference methods and gradients 
  Taras Petrenko         : pre 6.0 DFT Hessian and TD-DFT gradient, (ASA, deprecated), ECA, 1-Electron XAS/XES, NRVS 
  Peter Pinski           : DLPNO-MP2, DLPNO-MP2 Gradient                 
  Christoph Reimann      : Effective Core Potentials                     
  Marius Retegan         : Local ZFS, SOC                                
  Christoph Riplinger    : Optimizer, TS searches, QM/MM, DLPNO-CCSD(T), (RO)-DLPNO pert. Triples 
  Michael Roemelt        : Original ROCIS implementation                 
  Masaaki Saitow         : Open-shell DLPNO-CCSD energy and density      
  Barbara Sandhoefer     : DKH picture change effects                    
  Kantharuban Sivalingam : CASSCF convergence/infrastructure, NEVPT2 and variants, FIC-MRCI 
  Bernardo de Souza      : ESD, SOC TD-DFT                               
  Georgi L. Stoychev     : AutoAux, RI-MP2 NMR, DLPNO-MP2 response, X2C  
  Van Anh Tran           : RI-MP2 g-tensors                              
  Willem Van den Heuvel  : Paramagnetic NMR                              
  Zikuan Wang            : NOTCH, Electric field optimization            
  Frank Wennmohs         : Technical directorship and infrastructure     
  Hang Xu                : AUTO-CI-Response properties                   
                                                                         
[FACCTs GmbH]                                                            
  Markus Bursch, Miquel Garcia-Rates, Christoph Riplinger, Bernardo de Souza, Georgi L. Stoychev 
                                                                 
  APM, Basis sets (HGBS, AHGBS, def-TZVP (Ac-Lr), def2-XVPD (La-Lu)), CI-OPT, improved COSX, DLPNO-Multilevel,           
  DOCKER, DRACO, updates on ESD, GOAT, IRC, LR-CPCM, MBIS, meta-GGA TD-DFT gradient, ML-optimized integration grids, 
  MM, NACMEs, nearIR, NEB, NEB-TS, NL-DFT gradient (VV10), 2- and 3-layer-ONIOM, interface openCOSMO-RS, QMMM,   
  Crystal-QMMM, SF, symmetry and pop. for TD-DFT, r2SCAN hybrids, SOLVATOR                                   
                                                                         
[Other institutions]                                                     
  V. Asgeirsson          : NEB                                           
  Christoph Bannwarth    : sTDA-DFT, sTD-DFT, PBEh-3c, B97-3c, D3        
  Sebastian Ehlert       : rSCAN, r2SCAN, r2SCAN-3c, D4, dhf basis sets  
  Marvin Friede          : D4 for Fr, Ra, Ac-Lr                          
  Lars Goerigk           : TD-DFT with DH, B97 family of functionals     
  Stefan Grimme          : VdW corrections, initial TS optimization, DFT functionals, gCP, sTDA/sTD-DF 
  Waldemar Hujo          : DFT-NL                                        
  H. Jonsson             : NEB                                           
  Holger Kruse           : gCP                                           
  Marcel Mueller         : wB97X-3c, vDZP basis set                      
  Hagen Neugebauer       : wr2SCAN                                       
  Tobias Risthaus        : range-separated hybrid DFT                    
  Lukas Wittmann         : regularized MP2, r2SCAN double-hybrids, wr2SCAN        
                                                                         
We gratefully acknowledge several colleagues who have allowed us to      
interface, adapt or use parts of their codes:                            
  Ed Valeev, F. Pavosevic, A. Kumar             : LibInt (2-el integral package), F12 methods 
  Garnet Chan, S. Sharma, J. Yang, R. Olivares  : DMRG                   
  Ulf Ekstrom                                   : XCFun DFT Library      
  Mihaly Kallay                                 : mrcc  (arbitrary order and MRCC methods)
  Frank Weinhold                                : gennbo (NPA and NBO analysis)           
  Simon Mueller                                 : openCOSMO-RS                            
  Christopher J. Cramer and Donald G. Truhlar   : smd solvation model                     
  S Lehtola, MJT Oliveira, MAL Marques          : LibXC Library                           
  Liviu Ungur et al                             : ANISO software                          


 Your calculation uses the libint2 library for the computation of 2-el integrals
 For citations please refer to: http://libint.valeyev.net

 Your ORCA version has been built with support for libXC version: 6.2.2
 For citations please refer to: https://libxc.gitlab.io

 This ORCA versions uses:
   CBLAS   interface :  Fast vector & matrix operations
   LAPACKE interface :  Fast linear algebra routines
   SCALAPACK package :  Parallel linear algebra routines
   Shared memory     :  Shared parallel matrices
   BLAS/LAPACK       :  OpenBLAS 0.3.27  USE64BITINT DYNAMIC_ARCH NO_AFFINITY Haswell SINGLE_THREADED
        Core in use  :  Haswell
   Copyright (c) 2011-2014, The OpenBLAS Project


NOTE: MaxCore=750 MB was set to SCF,MP2,MDCI,CIPSI,MRCI and CIS
      => If you want to overwrite this, your respective input block should be placed after the MaxCore statement


***************************************
The coordinates will be read from file: NEB_reactant.xyz
***************************************


Your calculation utilizes the atom-pairwise dispersion correction
with the Becke-Johnson damping scheme (D3BJ)


Your calculation utilizes a Nudged-Elastic-Band implementation
 by V.Asgeirsson, C. Riplinger & H. Jonsson
Please cite in your paper:
 V. Asgeirsson et al., in prep. (2019)
   

Warning: RI is on but no J-basis has been assigned. Assigning Def2/J (nothing to worry about!)
================================================================================

----- Orbital basis set information -----
Your calculation utilizes the basis: def2-SVP
   F. Weigend and R. Ahlrichs, Phys. Chem. Chem. Phys. 7, 3297 (2005).

----- AuxJ basis set information -----
Your calculation utilizes the auxiliary basis: def2/J
   F. Weigend, Phys. Chem. Chem. Phys. 8, 1057 (2006).

================================================================================
                                        WARNINGS
                       Please study these warnings very carefully!
================================================================================


WARNING: Geometry Optimization
  ===> : Switching off AutoStart
         For restart on a previous wavefunction, please use MOREAD

================================================================================
                                       INPUT FILE
================================================================================
NAME = NEB-TS.inp
|  1> ! PBE def2-SVP D3BJ NEB-TS
|  2> 
|  3> %pal
|  4>     nprocs 4
|  5> end
|  6> 
|  7> %maxcore 750
|  8> 
|  9> %neb
| 10>     neb_end_xyzfile "NEB_product.xyz"
| 11>     NImages 5
| 12> end
| 13> 
| 14> *xyzfile 0 1 NEB_reactant.xyz
| 15> 
| 16> 
| 17>                          ****END OF INPUT****
================================================================================


--------------------------------------------------------------------------------
                        Nudged Elastic Band Calculation
--------------------------------------------------------------------------------

Number of images (incl. end points)     ....  7
Number of intermediate images           ....  5
Number of optimized images              ....  5
Optimization of end points before NEB   ....  NO
Use existing gbw files for MO input     ....  NO
Number of atoms                         ....  7
Number of (active) degrees of freedom   ....  21
Constrained atoms                       ....  None

-----------------------------------------
  REACTANT (ANGSTROEM)
-----------------------------------------
C     -4.283709     1.625615    -0.002642 
C     -2.974068     0.889792     0.008208 
H     -3.024283     0.063020     0.735501 
H     -2.144976     1.563000     0.255117 
H     -2.807253     0.423646    -0.976643 
O     -4.416673     2.808623     0.230366 
H     -5.177487     0.992025    -0.249898 

-----------------------------------------
  PRODUCT (ANGSTROEM)
-----------------------------------------
C     -4.278583     1.484518     0.033611 
C     -3.070429     0.911286     0.052179 
H     -2.193945     1.412820     0.468350 
H     -3.806505     3.140723     0.865082 
H     -2.937113    -0.087695    -0.356607 
O     -4.609602     2.722461     0.502765 
H     -5.158632     0.988607    -0.380772 



----------------------
NEB settings
----------------------
Method type                             ....  climbing image
Threshold for climbing image            ....  2.00e-02 Eh/Bohr 
Free endpoints                          ....  off 
Tangent type                            ....  improved 
Number of intermediate images           ....  5 
Number of images free to move           ....  5 
Spring type for image distribution      ....  distance between adjacent images 
Spring constant                         ....  energy weighted (0.0100 -to- 0.1000) Eh/Bohr^2 
Spring force perp. to the path          ....  none 
Generation of initial path              ....  image dependent pair potential 
Initial path via TS guess               ....  off 

Minimization of RMSD: Rotation          ....  always 
Minimization of RMSD: Translation type  ....  centroid 
Center fixed to origin                  ....  true 
Remove external force                   ....  true 

Reparametrization of the path           ....  off 
Convergence thresholds:
Convergence monitored for               ....  all images
Scaling factor                          ....  10.00

Convergence parameters for regular images:
               Max(|Fp|)                ....  2.00e-02 Eh/Bohr
               RMS(Fp)                  ....  1.00e-02 Eh/Bohr

Convergence parameters for climbing image:
               Max(|F|)                 ....  2.00e-03 Eh/Bohr
               RMS(F)                   ....  1.00e-03 Eh/Bohr
Optimization method:
Method                                  ....  L-BFGS
Max. iterations                         ....  500 
Step size                               ....  1.00 
Maximum allowed step size               ....  0.10 Bohr

LBFGS parameters: 
               Memory                   ....  20 
               Initial step size        ....  0.0010 
               Estimate curvature       ....  YES 
               Reset on maxmove         ....  YES 
               Reparam. on reset        ....  NO 
Generation of  the initial path:
Minimize RMSD between reactant and product configurations     .... done
       RMSD before minimization         ....  1.2396 Bohr
       RMSD after minimization          ....  0.9888 Bohr
Performing linear interpolation         ....  done
Fragment preparation                           ....  true
Bond cutoff factor                             ....  1.200e+00
Max. fragment distance                         ....  3.500e+00 Ang.
Interpolation using                            ....  IDPP (Image Dependent Pair Potential)
IDPP-Settings:
       Initial path for IDPP optimization      ....  Linear interpolation
       Pairwise distance interpolation         ....  Linear
       Remove global transl. and rot.          ....  true
       Convergence tolerance                   ....  0.0100 1/Ang.^3
       Max. number of iterations               ....    7000
       Spring constant                         ....  1.0000 1/Ang.^4
       Time step                               ....  0.0100 fs
       Max. movement per iteration             ....  0.0500 Ang.
       Full print                              ....  false 
idpp initial path generation successfully converged in 87 iterations
Displacement along initial path:              4.6915 Bohr
Writing initial trajectory to file      ....  NEB-TS_initial_path_trj.xyz



----------------------
NEB OPTIMIZATION      
----------------------

Following output files will be written:
Energy profile during opt. written to    ....  NEB-TS.interp
Optimization log-file                    ....  NEB-TS.NEB.log
Current trajectory will be written to    ....  NEB-TS_MEP_trj.xyz
       and to allxyz file                ....  NEB-TS_MEP.allxyz
       and individual images to xyz file ....  NEB-TS_im{NIm}.xyz
Trajectory history will be written to    ....  NEB-TS_MEP_ALL_trj.xyz
Converged CI will be written to          ....  NEB-TS_NEB-CI_converged.xyz
Converged TS will be written to          ....  NEB-TS_NEB-TS_converged.xyz

Single point energy and gradient calculation of reactant and
product configurations (have to be performed only once)
Properties of fixed NEB end points:
               Reactant:
                         E               ....   -153.531199 Eh
                         RMS(F)          ....      0.003160 Eh/Bohr
                         MAX(|F|)        ....      0.004942 Eh/Bohr
               Product:
                         E               ....   -153.513746 Eh
                         RMS(F)          ....      0.004483 Eh/Bohr
                         MAX(|F|)        ....      0.012562 Eh/Bohr



Starting iterations:

Optim.  Iteration  HEI  E(HEI)-E(0)  max(|Fp|)   RMS(Fp)    dS
Switch-on CI threshold               0.020000 
   LBFGS     0      3    0.132884    0.078224   0.019784  4.6915       
   LBFGS     1      3    0.128090    0.064793   0.016563  4.7112       
   LBFGS     2      3    0.125278    0.057475   0.014115  4.8151       
   LBFGS     3      3    0.121876    0.039096   0.011202  4.8086       
   LBFGS     4      3    0.119798    0.047706   0.011063  4.8380       
   LBFGS     5      3    0.115187    0.049904   0.010704  4.9144       
   LBFGS     6      3    0.111673    0.049048   0.010217  4.9426       
   LBFGS     7      3    0.109957    0.024055   0.006753  4.9527       
   LBFGS     8      3    0.104182    0.024611   0.006781  5.0409       
   LBFGS     9      3    0.103001    0.026360   0.006484  5.0604       
   LBFGS    10      3    0.102197    0.018644   0.005452  5.0813       

Image  3 will be converted to a climbing image in the next iteration (max(|Fp|) < 0.0200) 

Optim.  Iteration  CI   E(CI)-E(0)   max(|Fp|)   RMS(Fp)    dS     max(|FCI|)   RMS(FCI)
Convergence thresholds               0.020000   0.010000            0.002000    0.001000 
   LBFGS    11      3    0.101128    0.119330   0.023717  5.2174    0.030549    0.012378       
   LBFGS    12      3    0.100817    0.024035   0.005561  5.1337    0.013653    0.005353       
   LBFGS    13      3    0.100380    0.011058   0.003256  5.1520    0.011878    0.004511       
   LBFGS    14      3    0.098462    0.024131   0.005184  5.2796    0.006788    0.003079       
   LBFGS    15      3    0.097447    0.013788   0.003533  5.4482    0.011496    0.004614       
   LBFGS    16      3    0.097834    0.037608   0.005823  5.5942    0.009026    0.004269       
   LBFGS    17      3    0.097656    0.007860   0.002363  5.6094    0.006688    0.002813       
   LBFGS    18      3    0.097196    0.007473   0.001813  5.5524    0.005526    0.002133       
   LBFGS    19      3    0.096908    0.008888   0.001750  5.5407    0.006050    0.002672       
   LBFGS    20      3    0.096912    0.007088   0.001512  5.5467    0.005789    0.002622       
   LBFGS    21      3    0.096848    0.003327   0.000999  5.5627    0.002936    0.001394       
   LBFGS    22      3    0.096755    0.003142   0.000862  5.5832    0.002434    0.001186       
   LBFGS    23      3    0.096688    0.004463   0.001106  5.5860    0.002246    0.000968       
   LBFGS    24      3    0.096684    0.001645   0.000621  5.5802    0.001852    0.000986       

                                .--------------------.
          ----------------------| CI-NEB convergence |-------------------------
          Item                value                   Tolerance       Converged
          ---------------------------------------------------------------------
          RMS(Fp)             0.0006212712            0.0100000000      YES
          MAX(|Fp|)           0.0016447884            0.0200000000      YES
          RMS(FCI)            0.0009860303            0.0010000000      YES
          MAX(|FCI|)          0.0018520739            0.0020000000      YES
          ---------------------------------------------------------------------

The elastic band and climbing image have converged successfully to a MEP in 24 iterations!


                    *********************H U R R A Y*********************
                    ***        THE NEB OPTIMIZATION HAS CONVERGED     ***
                    *****************************************************



---------------------------------------------------------------
                         PATH SUMMARY              
---------------------------------------------------------------
All forces in Eh/Bohr.

Image Dist.(Ang.)    E(Eh)   dE(kcal/mol)  max(|Fp|)  RMS(Fp)
  0     0.000    -153.53120      0.00       0.00505   0.00314
  1     0.902    -153.49997     19.59       0.00107   0.00045
  2     1.217    -153.45468     48.01       0.00159   0.00071
  3     1.456    -153.43451     60.67       0.00162   0.00076 <= CI
  4     1.740    -153.46100     44.05       0.00164   0.00095
  5     2.115    -153.49242     24.33       0.00153   0.00083
  6     2.953    -153.51375     10.95       0.01255   0.00446

Straight line distance between images along the path:
        D( 0- 1) =   0.9018 Ang.
        D( 1- 2) =   0.3154 Ang.
        D( 2- 3) =   0.2387 Ang.
        D( 3- 4) =   0.2838 Ang.
        D( 4- 5) =   0.3757 Ang.
        D( 5- 6) =   0.8375 Ang.

---------------------------------------------------------------
               INFORMATION ABOUT SADDLE POINT     
---------------------------------------------------------------

Climbing image                            ....  3 
Energy                                    ....  -153.43451480 Eh
Max. abs. force                           ....  1.8521e-03 Eh/Bohr

-----------------------------------------
  SADDLE POINT (ANGSTROEM)
-----------------------------------------
C     -0.661058     0.279572    -0.095902 
C      0.509610    -0.512210    -0.166836 
H      0.842642    -0.871145     0.828713 
H      0.738944     0.871289     0.390073 
H      0.688548    -1.242741    -0.973604 
O     -0.452197     1.367747     0.560956 
H     -1.666488     0.107487    -0.543401 

-----------------------------------------
  FORCES (Eh/Bohr)
-----------------------------------------
C     -0.001159    -0.001443    -0.001515 
C      0.000138    -0.001852    -0.000498 
H     -0.000072     0.001148    -0.000298 
H     -0.000935     0.001187     0.000827 
H     -0.000100    -0.000469    -0.000164 
O      0.001274     0.001352     0.001466 
H      0.000853     0.000077     0.000181 

-----------------------------------------
  UNIT TANGENT
-----------------------------------------
C      0.112577    -0.156669    -0.129008 
C     -0.176325    -0.297427    -0.104469 
H      0.146819     0.139391    -0.060881 
H     -0.399939     0.539350     0.346847 
H     -0.084710    -0.206696    -0.057351 
O      0.356459    -0.092646     0.043442 
H      0.045118     0.074697    -0.038579 
 => Unit tangent is an approximation to the TS mode at the saddle point

Next a TS optimization is performed on the CI from the NEB run.

         *************************************************************
         *                       TS OPTIMIZATION                     *
         *************************************************************


Following output files will be written:
Converged TS will be written to          ....  NEB-TS_NEB-TS_converged.xyz
                                         ....  NEB-TS.xyz
Current trajectory will be written to    ....  NEB-TS_trj.xyz
Initial Hessian will be stored in        ....  NEB-TS.appr.hess
 (Almloef) Geometry optimization settings:
Update method            Update   .... Bofill
Choice of coordinates    CoordSys .... (2022) Redundant Internals
Initial Hessian          InHess   .... Read
Max. no of cycles        MaxIter  .... 50

Convergence Tolerances:
Energy Change            TolE     ....  5.0000e-06 Eh
Max. Gradient            TolMAXG  ....  3.0000e-04 Eh/bohr
RMS Gradient             TolRMSG  ....  1.0000e-04 Eh/bohr
Max. Displacement        TolMAXD  ....  4.0000e-03 bohr
RMS Displacement         TolRMSD  ....  2.0000e-03 bohr
Strict Convergence                .... False

------------------------------------------------------------------------------
                        ORCA OPTIMIZATION COORDINATE SETUP
------------------------------------------------------------------------------

The optimization will be done in redundant internal coordinates (2022)
Making redundant internal coordinates   ...  (2022 redundants) done
Following TS mode number                ...     0
TS-active-atoms for coordinate setup... 1 3 5 
Evaluating the initial hessian          ... (Reading Exact Hessian)...  
InHessName: NEB-TS.appr.hess	The file <NEB-TS.appr.hess> is opened as a .hess file
done
done
Evaluating the coordinates              ...  done
Calculating the B-matrix                .... done
Calculating the G-matrix                .... done
Diagonalizing the G-matrix              .... done
The first mode is                       ....    7
The number of degrees of freedom        ....   15

    -----------------------------------------------------------------
                    Redundant Internal Coordinates


    -----------------------------------------------------------------
         Definition                    Initial Value    d2E/dq (diagonal element)
    -----------------------------------------------------------------
      1. B(C   1,C   0)                  1.4151         0.384360   
      2. B(H   2,C   1)                  1.1094         0.335302   
      3. B(H   3,C   1)                  1.5089         0.018109   
      4. B(H   3,C   0)                  1.5957         0.056384   
      5. B(H   4,C   1)                  1.1030         0.354295   
      6. B(O   5,H   3)                  1.3017         0.010202   
      7. B(O   5,C   1)                  2.2336         0.111158   
      8. B(O   5,C   0)                  1.2881         0.502776   
      9. B(H   6,C   0)                  1.1139         0.329665   
     10. A(C   1,C   0,H   6)          129.8031         0.197490   
     11. A(O   5,C   0,H   6)          118.7988         0.200790   
     12. A(C   1,C   0,O   5)          111.3529         0.094822   
     13. A(H   2,C   1,H   4)          113.1648         0.173334   
     14. A(C   0,C   1,H   4)          122.7838         0.253159   
     15. A(C   0,C   1,H   2)          112.6052         0.243325   
     16. A(C   0,O   5,H   3)           76.0686         0.041754   
     17. D(H   2,C   1,C   0,O   5)     64.2964         0.020712   
     18. D(H   4,C   1,C   0,O   5)   -154.8979         0.025889   
     19. D(H   4,C   1,C   0,H   6)     22.5816         0.016301   
     20. D(H   2,C   1,C   0,H   6)   -118.2240         0.019173   
     21. D(H   3,O   5,C   0,H   6)   -167.4665         0.030158   
     22. D(H   3,O   5,C   0,C   1)     10.3241         0.029938   
    -----------------------------------------------------------------

Number of atoms                         .... 7
Number of degrees of freedom            .... 22


         *************************************************************
         *                GEOMETRY OPTIMIZATION CYCLE   1            *
         *************************************************************


           ************************************************************
           *        Program running with 4 parallel MPI-processes     *
           *              working on a common directory               *
           ************************************************************
------------------------------------------------------------------------------
                             ORCA STARTUP CALCULATIONS
                           -- RI-GTO INTEGRALS CHOSEN --
------------------------------------------------------------------------------
------------------------------------------------------------------------------
                   ___                                                        
                  /   \      - P O W E R E D   B Y -                         
                 /     \                                                     
                 |  |  |   _    _      __       _____    __    __             
                 |  |  |  | |  | |    /  \     |  _  \  |  |  /  |          
                  \  \/   | |  | |   /    \    | | | |  |  | /  /          
                 / \  \   | |__| |  /  /\  \   | |_| |  |  |/  /          
                |  |  |   |  __  | /  /__\  \  |    /   |      \           
                |  |  |   | |  | | |   __   |  |    \   |  |\   \          
                \     /   | |  | | |  |  |  |  | |\  \  |  | \   \       
                 \___/    |_|  |_| |__|  |__|  |_| \__\ |__|  \__/        
                                                                              
                      - O R C A' S   B I G   F R I E N D -                    
                                      &                                       
                       - I N T E G R A L  F E E D E R -                       
                                                                              
 v1 FN, 2020, v2 2021, v3 2022-2024                                           
------------------------------------------------------------------------------


----------------------
SHARK INTEGRAL PACKAGE
----------------------

Number of atoms                             ...      7
Number of basis functions                   ...     62
Number of shells                            ...     30
Maximum angular momentum                    ...      2
Integral batch strategy                     ... SHARK/LIBINT Hybrid
RI-J (if used) integral strategy            ... SPLIT-RIJ (Revised 2003 algorithm where possible)
Printlevel                                  ...      1
Contraction scheme used                     ... SEGMENTED contraction
Prescreening option                         ... SCHWARTZ
   Thresh                                   ... 2.500e-11
   Tcut                                     ... 2.500e-12
   Tpresel                                  ... 2.500e-12 
Coulomb Range Separation                    ... NOT USED
Exchange Range Separation                   ... NOT USED
Multipole approximations                    ... NOT USED
Finite Nucleus Model                        ... NOT USED
CABS basis                                  ... NOT available
Auxiliary Coulomb fitting basis             ... AVAILABLE
   # of basis functions in Aux-J            ...    191
   # of shells in Aux-J                     ...     65
   Maximum angular momentum in Aux-J        ...      4
Auxiliary J/K fitting basis                 ... NOT available
Auxiliary Correlation fitting basis         ... NOT available
Auxiliary 'external' fitting basis          ... NOT available

Checking pre-screening integrals            ... done (  0.0 sec) Dimension = 30
Check shell pair data                       ... done (  0.0 sec)
Shell pair information
Shell pair cut-off parameter TPreSel        ...   2.5e-12
Total number of shell pairs                 ...       465
Shell pairs after pre-screening             ...       464
Total number of primitive shell pairs       ...      1647
Primitive shell pairs kept                  ...      1432
          la=0 lb=0:    152 shell pairs
          la=1 lb=0:    170 shell pairs
          la=1 lb=1:     55 shell pairs
          la=2 lb=0:     51 shell pairs
          la=2 lb=1:     30 shell pairs
          la=2 lb=2:      6 shell pairs

Calculating one electron integrals          ... done (  0.0 sec)
Calculating RI/J V-Matrix + Cholesky decomp.... done (  0.0 sec)
Calculating Nuclear repulsion               ... done (  0.0 sec) ENN=     71.152111788601 Eh

Diagonalization of the overlap matrix:
Smallest eigenvalue                        ... 4.018e-03
Time for diagonalization                   ...    0.001 sec
Threshold for overlap eigenvalues          ... 1.000e-07
Number of eigenvalues below threshold      ... 0
Time for construction of square roots      ...    0.000 sec
Total time needed                          ...    0.001 sec

-------------------
DFT GRID GENERATION
-------------------

General Integration Accuracy     IntAcc      ... 4.388
Radial Grid Type                 RadialGrid  ... OptM3 with GC (2021)
Angular Grid (max. ang.)         AngularGrid ... 4 (Lebedev-302)
Angular grid pruning method      GridPruning ... 4 (adaptive)
Weight generation scheme         WeightScheme... mBecke (2022)
Basis function cutoff            BFCut       ... 1.0000e-11
Integration weight cutoff        WCut        ... 1.0000e-14
Partially contracted basis set               ... off
Rotationally invariant grid construction     ... off
Angular grids for H and He will be reduced by one unit

Total number of grid points                  ...    31359
Total number of batches                      ...      494
Average number of points per batch           ...       63
Average number of grid points per atom       ...     4480
Initializing property integral containers    ... done (  0.0 sec)

SHARK setup successfully completed in   0.2 seconds

Maximum memory used throughout the entire STARTUP-calculation: 10.4 MB


           ************************************************************
           *        Program running with 4 parallel MPI-processes     *
           *              working on a common directory               *
           ************************************************************
-------------------------------------------------------------------------------
                                 ORCA GUESS
                   Start orbitals & Density for SCF / CASSCF
-------------------------------------------------------------------------------

------------
SCF SETTINGS
------------
Hamiltonian:
 Density Functional     Method          .... DFT(GTOs)
 Exchange Functional    Exchange        .... PBE
   PBE kappa parameter   XKappa         ....  0.804000
   PBE mue parameter    XMuePBE         ....  0.219520
 Correlation Functional Correlation     .... PBE
   PBE beta parameter  CBetaPBE         ....  0.066725
 LDA part of GGA corr.  LDAOpt          .... PW91-LDA
 Gradients option       PostSCFGGA      .... off
   NL short-range parameter             ....  6.400000
 RI-approximation to the Coulomb term is turned on
   Number of AuxJ basis functions       .... 191


General Settings:
 Integral files         IntName         .... NEB-TS
 Hartree-Fock type      HFTyp           .... RHF
 Total Charge           Charge          ....    0
 Multiplicity           Mult            ....    1
 Number of Electrons    NEL             ....   24
 Basis Dimension        Dim             ....   62
 Nuclear Repulsion      ENuc            ....     71.1521117886 Eh

Convergence Acceleration:
 AO-DIIS                CNVDIIS         .... on
   Start iteration      DIISMaxIt       ....    12
   Startup error        DIISStart       ....  0.200000
   # of expansion vecs  DIISMaxEq       ....     5
   Bias factor          DIISBfac        ....   1.050
   Max. coefficient     DIISMaxC        ....  10.000
 MO-DIIS                CNVKDIIS        .... off
 Trust-Rad. Augm. Hess. CNVTRAH         .... auto
   Auto Start mean grad. ratio tolernc. ....  1.125000
   Auto Start start iteration           ....     1
   Auto Start num. interpolation iter.  ....    10
   Max. Number of Micro iterations      ....    24
   Max. Number of Macro iterations      .... Maxiter - #DIIS iter
   Number of Davidson start vectors     ....     2
   Converg. threshold    (grad. norm)   ....   1.000e-05
   Grad. Scal. Fac. for Micro threshold ....   0.100
   Minimum threshold for Micro iter.    ....   1.000e-02
   NR start threshold (gradient norm)   ....   1.000e-04
   Initial trust radius                 ....   0.400
   Minimum AH scaling param. (alpha)    ....   1.000
   Maximum AH scaling param. (alpha)    .... 1000.000
   Quad. conv. algorithm                .... NR
   White noise on init. David. guess    .... on
   Maximum white noise                  ....   0.010
   Pseudo random numbers                .... off
   Inactive MOs                         .... canonical
   Orbital update algorithm             .... Taylor
   Preconditioner                       .... Diag
   Full preconditioner red. dimension   ....   250
 SOSCF                  CNVSOSCF        .... on
   Start iteration      SOSCFMaxIt      ....   150
   Startup grad/error   SOSCFStart      ....  0.003300
   Hessian update       SOSCFHessUp     .... L-BFGS
 Level Shifting         CNVShift        .... on
   Level shift para.    LevelShift      ....    0.2500
   Turn off err/grad.   ShiftErr        ....    0.0010
 Zerner damping         CNVZerner       .... off
 Static damping         CNVDamp         .... on
   Fraction old density DampFac         ....    0.7000
   Max. Damping (<1)    DampMax         ....    0.9800
   Min. Damping (>=0)   DampMin         ....    0.0000
   Turn off err/grad.   DampErr         ....    0.1000

SCF Procedure:
 Maximum # iterations   MaxIter         ....   125
 SCF integral mode      SCFMode         .... Direct
   Integral package                     .... SHARK and LIBINT hybrid scheme
 Reset frequency        DirectResetFreq ....    20
 Integral Threshold     Thresh          ....  2.500e-11 Eh
 Primitive CutOff       TCut            ....  2.500e-12 Eh

Convergence Tolerance:
 Convergence Check Mode ConvCheckMode   .... Total+1el-Energy
 Convergence forced     ConvForced      .... 0
 Energy Change          TolE            ....  1.000e-08 Eh
 1-El. energy change                    ....  1.000e-05 Eh
 Orbital Gradient       TolG            ....  1.000e-05
 Orbital Rotation angle TolX            ....  1.000e-05
 DIIS Error             TolErr          ....  5.000e-07

---------------------
INITIAL GUESS: MOREAD
---------------------
Guess MOs are being read from file: NEB-TS.gbw
Input Geometry matches current geometry (good)
Input basis set matches current basis set (good)
Occupation numbers will be reassigned to an Aufbau configuration
MOs were renormalized
MOs were reorthogonalized (Cholesky)
                      ------------------
                      INITIAL GUESS DONE (   0.0 sec)
                      ------------------
             **** ENERGY FILE WAS UPDATED (NEB-TS.en.tmp) ****
Finished Guess after   0.1 sec
Maximum memory used throughout the entire GUESS-calculation: 6.1 MB


           ************************************************************
           *        Program running with 4 parallel MPI-processes     *
           *              working on a common directory               *
           ************************************************************

-------------------------------------------------------------------------------------------
                                      ORCA LEAN-SCF
                              memory conserving SCF solver
-------------------------------------------------------------------------------------------

----------------------------------------D-I-I-S--------------------------------------------
Iteration    Energy (Eh)           Delta-E    RMSDP     MaxDP     DIISErr   Damp  Time(sec)
-------------------------------------------------------------------------------------------
               ***  Starting incremental Fock matrix formation  ***
                              *** Initializing SOSCF ***
---------------------------------------S-O-S-C-F--------------------------------------
Iteration    Energy (Eh)           Delta-E    RMSDP     MaxDP     MaxGrad    Time(sec)
--------------------------------------------------------------------------------------
    1    -153.4311291031866631     0.00e+00  7.98e-07  1.10e-05  1.06e-06     0.1
               *** Restarting incremental Fock matrix formation ***
    2    -153.4311291033774296    -1.91e-10  4.98e-07  6.62e-06  1.22e-06     0.1
                  *** Gradient check signals convergence ***

               *****************************************************
               *                     SUCCESS                       *
               *           SCF CONVERGED AFTER   2 CYCLES          *
               *****************************************************

             **** ENERGY FILE WAS UPDATED (NEB-TS.en.tmp) ****

----------------
TOTAL SCF ENERGY
----------------

Total Energy       :       -153.43112910337743 Eh           -4175.07328 eV

Components:
Nuclear Repulsion  :         71.15211178860089 Eh            1936.14739 eV
Electronic Energy  :       -224.58324089197833 Eh           -6111.22067 eV
One Electron Energy:       -348.66234406721838 Eh           -9487.58472 eV
Two Electron Energy:        124.07910317524005 Eh            3376.36405 eV

Virial components:
Potential Energy   :       -305.50575712213526 Eh           -8313.23429 eV
Kinetic Energy     :        152.07462801875783 Eh            4138.16101 eV
Virial Ratio       :          2.00891996976940

DFT components:
N(Alpha)           :       11.999996288435 electrons
N(Beta)            :       11.999996288435 electrons
N(Total)           :       23.999992576870 electrons
E(X)               :      -19.818211105667 Eh       
E(C)               :       -0.790048019747 Eh       
E(XC)              :      -20.608259125414 Eh       

---------------
SCF CONVERGENCE
---------------

  Last Energy change         ...    1.9077e-10  Tolerance :   1.0000e-08
  Last MAX-Density change    ...    6.6223e-06  Tolerance :   1.0000e-07
  Last RMS-Density change    ...    4.9819e-07  Tolerance :   5.0000e-09
  Last DIIS Error            ...    7.9730e-06  Tolerance :   5.0000e-07
  Last Orbital Gradient      ...    1.2157e-06  Tolerance :   1.0000e-05
  Last Orbital Rotation      ...    2.4356e-06  Tolerance :   1.0000e-05


----------------
ORBITAL ENERGIES
----------------

  NO   OCC          E(Eh)            E(eV) 
   0   2.0000     -18.783328      -511.1203 
   1   2.0000      -9.992535      -271.9107 
   2   2.0000      -9.888036      -269.0671 
   3   2.0000      -0.968727       -26.3604 
   4   2.0000      -0.660201       -17.9650 
   5   2.0000      -0.537206       -14.6181 
   6   2.0000      -0.451318       -12.2810 
   7   2.0000      -0.403696       -10.9851 
   8   2.0000      -0.381036       -10.3685 
   9   2.0000      -0.339114        -9.2278 
  10   2.0000      -0.285873        -7.7790 
  11   2.0000      -0.198056        -5.3894 
  12   0.0000      -0.085773        -2.3340 
  13   0.0000       0.038074         1.0360 
  14   0.0000       0.061438         1.6718 
  15   0.0000       0.082076         2.2334 
  16   0.0000       0.116505         3.1703 
  17   0.0000       0.189030         5.1438 
  18   0.0000       0.254141         6.9155 
  19   0.0000       0.336730         9.1629 
  20   0.0000       0.375852        10.2274 
  21   0.0000       0.445581        12.1249 
  22   0.0000       0.470309        12.7978 
*Only the first 10 virtual orbitals were printed.
-------
TIMINGS
-------

Total SCF time: 0 days 0 hours 0 min 0 sec 

Total time                  ....       0.259 sec
Sum of individual times     ....       0.245 sec  ( 94.7%)

SCF preparation             ....       0.076 sec  ( 29.5%)
Fock matrix formation       ....       0.153 sec  ( 59.1%)
  Startup                   ....       0.002 sec  (  1.1% of F)
  Split-RI-J                ....       0.026 sec  ( 17.3% of F)
  XC integration            ....       0.121 sec  ( 79.3% of F)
    Basis function eval.    ....       0.047 sec  ( 38.7% of XC)
    Density eval.           ....       0.022 sec  ( 18.0% of XC)
    XC-Functional eval.     ....       0.015 sec  ( 12.1% of XC)
    XC-Potential eval.      ....       0.028 sec  ( 23.5% of XC)
Diagonalization             ....       0.000 sec  (  0.0%)
Density matrix formation    ....       0.001 sec  (  0.5%)
Total Energy calculation    ....       0.001 sec  (  0.5%)
Population analysis         ....       0.000 sec  (  0.0%)
Orbital Transformation      ....       0.003 sec  (  1.1%)
Orbital Orthonormalization  ....       0.000 sec  (  0.0%)
DIIS solution               ....       0.005 sec  (  1.7%)
SOSCF solution              ....       0.006 sec  (  2.1%)
Finished LeanSCF after   0.3 sec

Maximum memory used throughout the entire LEANSCF-calculation: 7.0 MB


-------------------------------------------------------------------------------
                          DFT DISPERSION CORRECTION                            
                                                                               
                              DFTD3 V3.1  Rev 1                                
                          USING Becke-Johnson damping                          
-------------------------------------------------------------------------------
The PBE functional is recognized
Active option DFTDOPT                   ...         4   

molecular C6(AA) [au] = 413.349021 


            DFT-D V3
 parameters
 s6 scaling factor         :     1.0000 
 a1 scaling factor         :     0.4289 
 s8 scaling factor         :     0.7875 
 a2 scaling factor         :     4.4407 
 ad hoc parameters k1-k3   :    16.0000     1.3333    -4.0000 

 Edisp/kcal,au: -2.124556180767  -0.003385695423 
 E6   /kcal   :  -1.533856288 
 E8   /kcal   :  -0.590699893 
 % E8         :  27.803448951 

-------------------------   ----------------
Dispersion correction           -0.003385695
-------------------------   ----------------


-------------------------   --------------------
FINAL SINGLE POINT ENERGY      -153.434514798800
-------------------------   --------------------



           ************************************************************
           *        Program running with 4 parallel MPI-processes     *
           *              working on a common directory               *
           ************************************************************
------------------------------------------------------------------------------
                         ORCA SCF GRADIENT CALCULATION
------------------------------------------------------------------------------

Nuc. rep. gradient        (SHARK) ... done (  0.0 sec)
HCore & Overlap gradient  (SHARK) ... done (  0.0 sec)
Split-RIJ-J gradient      (SHARK) ... done (  0.1 sec)
XC gradient                       ... done (  0.3 sec)
Dispersion correction             ... done (  0.0 sec)

-------------------
DISPERSION GRADIENT
-------------------

   1   C   :    0.000029335    0.000043254    0.000018589
   2   C   :    0.000046442    0.000061460    0.000031291
   3   H   :    0.000046165   -0.000044505    0.000026820
   4   H   :   -0.000171247   -0.000032657   -0.000019511
   5   H   :    0.000043763   -0.000072239   -0.000044715
   6   O   :    0.000091738    0.000032883    0.000012147
   7   H   :   -0.000086196    0.000011803   -0.000024621

Difference to translation invariance:
           :    0.0000000000    0.0000000000   -0.0000000000

Difference to rotation invariance:
           :    0.0000000000   -0.0000000000   -0.0000000000

Norm of the Dispersion gradient    ...    0.0002693462
RMS gradient                       ...    0.0000587762
MAX gradient                       ...    0.0001712473

------------------
CARTESIAN GRADIENT
------------------

   1   C   :    0.001159287    0.001444914    0.001515339
   2   C   :   -0.000138232    0.001850607    0.000497943
   3   H   :    0.000071768   -0.001147929    0.000297435
   4   H   :    0.000933651   -0.001185067   -0.000825712
   5   H   :    0.000099668    0.000468454    0.000163078
   6   O   :   -0.001272770   -0.001353413   -0.001466825
   7   H   :   -0.000853371   -0.000077566   -0.000181259

Difference to translation invariance:
           :    0.0000000000    0.0000000000   -0.0000000000

Difference to rotation invariance:
           :   -0.0000081464    0.0000342359    0.0000364649

Norm of the Cartesian gradient     ...    0.0045183358
RMS gradient                       ...    0.0009859817
MAX gradient                       ...    0.0018506074

-------
TIMINGS
-------

Total SCF gradient time     ....        0.403 sec

Densities                   ....       0.000 sec  (  0.0%)
One electron gradient       ....       0.008 sec  (  2.1%)
RI-J Coulomb gradient       ....       0.100 sec  ( 24.7%)
XC gradient                 ....       0.252 sec  ( 62.4%)

Maximum memory used throughout the entire SCFGRAD-calculation: 25.9 MB
------------------------------------------------------------------------------
                         ORCA GEOMETRY RELAXATION STEP
------------------------------------------------------------------------------

Reading the OPT-File                    .... done
Getting information on internals        .... done
Copying old internal coords+grads       .... done
Making the new internal coordinates     .... (2022 redundants) done
Validating the new internal coordinates .... (2022 redundants) done
Calculating the B-matrix                .... done
Calculating the G,G- and P matrices     .... done
Transforming gradient to internals      .... done
Projecting the internal gradient        .... done
Number of atoms                         ....   7
Number of internal coordinates          ....  22
Current Energy                          ....  -153.434514799 Eh
Current gradient norm                   ....     0.004518336 Eh/bohr
Maximum allowed component of the step   ....  0.300
Current trust radius                    ....  0.100
Evaluating the initial hessian          ....  (read) 
(Reading Exact Hessian)...  
InHessName: NEB-TS.appr.hess	The file <NEB-TS.appr.hess> is opened as a .hess file
done
done
Projecting the Hessian                  .... done
Diagonalizing the Hessian               .... done
Dimension of the hessian                ....  22
Lowest eigenvalues of the Hessian:
 -0.079946220  0.014910981  0.029403345  0.041460421  0.053553415
Hessian has   1 negative eigenvalues
Taking P-RFO step
Searching for lambda that maximizes along the lowest mode
TS mode is mode number   0 with eigenvalue  -0.07994622 and components:
   1.   -0.12155586
   2.   -0.01549762
   3.    0.56295603
   4.   -0.05649020
   5.   -0.01431382
   6.   -0.67223015
   7.    0.00957480
   8.    0.13864724
   9.   -0.01515472
  10.    0.02656917
  11.   -0.02555076
  12.    0.00011799
  13.    0.04999943
  14.    0.01283605
  15.    0.02902191
  16.    0.14349411
  17.   -0.26555681
  18.   -0.10884290
  19.   -0.07800496
  20.   -0.23471887
  21.   -0.12335799
  22.   -0.09493300

Lambda that maximizes along the TS mode:       0.00006028
Searching for lambda that minimizes along all other modes
In cycle   1: lambdaN =  -0.00002357   step =   0.00002357
In cycle   2: lambdaN =  -0.00002357   step =   0.00000000
Lambda that minimizes along all other modes:  -0.00002357
The final length of the internal step   ....       0.0339
Converting the step to Cartesian space:
 Initial RMS(Int)=    0.0072207927
Transforming coordinates:
 Iter   0:  RMS(Cart)=    0.0056836021 RMS(Int)=    0.0072225975
done
Storing new coordinates                 .... done

                                .--------------------.
          ----------------------|Geometry convergence|-------------------------
          Item                value                   Tolerance       Converged
          ---------------------------------------------------------------------
          RMS gradient        0.0006901419            0.0001000000      NO
          MAX gradient        0.0018188729            0.0003000000      NO
          RMS step            0.0072207927            0.0020000000      NO
          MAX step            0.0225174358            0.0040000000      NO
          ........................................................
          Max(Bonds)      0.0119      Max(Angles)    0.37
          Max(Dihed)        0.44      Max(Improp)    0.00
          ---------------------------------------------------------------------

The optimization has not yet converged - more geometry cycles are needed


    ---------------------------------------------------------------------------
                         Redundant Internal Coordinates
                            (Angstroem and degrees)

        Definition                    Value    dE/dq     Step     New-Value  comp.(TS mode)
    ----------------------------------------------------------------------------
     1. B(C   1,C   0)                1.4151  0.000272  0.0020    1.4171   
     2. B(H   2,C   1)                1.1094  0.000661 -0.0007    1.1087   
     3. B(H   3,C   1)                1.5089 -0.000884 -0.0119    1.4970          0.56
     4. B(H   3,C   0)                1.5957 -0.000180 -0.0000    1.5957   
     5. B(H   4,C   1)                1.1030 -0.000414  0.0008    1.1038   
     6. B(O   5,H   3)                1.3017  0.001299  0.0113    1.3130          0.67
     7. B(O   5,C   1)                2.2336 -0.000701  0.0002    2.2338   
     8. B(O   5,C   0)                1.2881 -0.001819 -0.0007    1.2874   
     9. B(H   6,C   0)                1.1139  0.000855 -0.0011    1.1128   
    10. A(C   1,C   0,H   6)          129.80 -0.000033   -0.03    129.77   
    11. A(O   5,C   0,H   6)          118.80 -0.000356    0.12    118.91   
    12. A(C   1,C   0,O   5)          111.35  0.000375   -0.07    111.29   
    13. A(H   2,C   1,H   4)          113.16 -0.000465   -0.01    113.15   
    14. A(C   0,C   1,H   4)          122.78 -0.000269    0.02    122.81   
    15. A(C   0,C   1,H   2)          112.61  0.000598   -0.17    112.44   
    16. A(C   0,O   5,H   3)           76.07  0.000064   -0.37     75.70   
    17. D(H   2,C   1,C   0,O   5)     64.30  0.000919   -0.20     64.10          0.27
    18. D(H   4,C   1,C   0,O   5)   -154.90  0.000573   -0.44   -155.34   
    19. D(H   4,C   1,C   0,H   6)     22.58  0.000180   -0.04     22.54   
    20. D(H   2,C   1,C   0,H   6)   -118.22  0.000525    0.20   -118.02   
    21. D(H   3,O   5,C   0,H   6)   -167.47  0.000563   -0.22   -167.69   
    22. D(H   3,O   5,C   0,C   1)     10.32  0.000224    0.12     10.44   
    ----------------------------------------------------------------------------

Geometry step timings:
Preparation and reading OPT file:      0.000 s ( 2.458 %)
Internal coordinates            :      0.000 s ( 0.561 %)
B/P matrices and projection     :      0.000 s ( 3.118 %)
Hessian update/contruction      :      0.005 s (84.774 %)
Making the step                 :      0.000 s ( 3.118 %)
Converting the step to Cartesian:      0.000 s ( 0.561 %)
Storing new data                :      0.000 s ( 0.429 %)
Checking convergence            :      0.000 s ( 0.033 %)
Final printing                  :      0.000 s ( 4.899 %)
Total time                      :      0.006 s

Time for energy+gradient        :      1.485 s
Time for complete geometry iter :      1.616 s

         *************************************************************
         *                GEOMETRY OPTIMIZATION CYCLE   2            *
         *************************************************************
---------------------------------
CARTESIAN COORDINATES (ANGSTROEM)
---------------------------------
  C     -0.662551    0.282095   -0.096924
  C      0.510860   -0.509297   -0.167226
  H      0.840573   -0.866616    0.829178
  H      0.743300    0.862051    0.386260
  H      0.690278   -1.242556   -0.972470
  O     -0.455522    1.367207    0.564107
  H     -1.666938    0.107117   -0.542926

----------------------------
CARTESIAN COORDINATES (A.U.)
----------------------------
  NO LB      ZA    FRAG     MASS         X           Y           Z
   0 C     6.0000    0    12.011   -1.252040    0.533082   -0.183159
   1 C     6.0000    0    12.011    0.965385   -0.962433   -0.316011
   2 H     1.0000    0     1.008    1.588453   -1.637667    1.566920
   3 H     1.0000    0     1.008    1.404634    1.629040    0.729926
   4 H     1.0000    0     1.008    1.304436   -2.348090   -1.837702
   5 O     8.0000    0    15.999   -0.860812    2.583647    1.066007
   6 H     1.0000    0     1.008   -3.150057    0.202422   -1.025981

--------------------------------
INTERNAL COORDINATES (ANGSTROEM)
--------------------------------
 C      0   0   0     0.000000000000     0.00000000     0.00000000
 C      1   0   0     1.417087115927     0.00000000     0.00000000
 H      2   1   0     1.108696773194   112.43597995     0.00000000
 H      2   1   3     1.496987234160    66.33654958   286.21499208
 H      2   1   3     1.103755848326   122.80613646   140.56074831
 O      1   2   3     1.287357922872   111.28693603    64.09988371
 H      1   2   3     1.112802291599   129.76759810   241.97610182

---------------------------
INTERNAL COORDINATES (A.U.)
---------------------------
 C      0   0   0     0.000000000000     0.00000000     0.00000000
 C      1   0   0     2.677906557010     0.00000000     0.00000000
 H      2   1   0     2.095133266898   112.43597995     0.00000000
 H      2   1   3     2.828895898538    66.33654958   286.21499208
 H      2   1   3     2.085796272049   122.80613646   140.56074831
 O      1   2   3     2.432753910562   111.28693603    64.09988371
 H      1   2   3     2.102891572321   129.76759810   241.97610182



           ************************************************************
           *        Program running with 4 parallel MPI-processes     *
           *              working on a common directory               *
           ************************************************************
------------------------------------------------------------------------------
                   ___                                                        
                  /   \      - P O W E R E D   B Y -                         
                 /     \                                                     
                 |  |  |   _    _      __       _____    __    __             
                 |  |  |  | |  | |    /  \     |  _  \  |  |  /  |          
                  \  \/   | |  | |   /    \    | | | |  |  | /  /          
                 / \  \   | |__| |  /  /\  \   | |_| |  |  |/  /          
                |  |  |   |  __  | /  /__\  \  |    /   |      \           
                |  |  |   | |  | | |   __   |  |    \   |  |\   \          
                \     /   | |  | | |  |  |  |  | |\  \  |  | \   \       
                 \___/    |_|  |_| |__|  |__|  |_| \__\ |__|  \__/        
                                                                              
                      - O R C A' S   B I G   F R I E N D -                    
                                      &                                       
                       - I N T E G R A L  F E E D E R -                       
                                                                              
 v1 FN, 2020, v2 2021, v3 2022-2024                                           
------------------------------------------------------------------------------


----------------------
SHARK INTEGRAL PACKAGE
----------------------

Number of atoms                             ...      7
Number of basis functions                   ...     62
Number of shells                            ...     30
Maximum angular momentum                    ...      2
Integral batch strategy                     ... SHARK/LIBINT Hybrid
RI-J (if used) integral strategy            ... SPLIT-RIJ (Revised 2003 algorithm where possible)
Printlevel                                  ...      1
Contraction scheme used                     ... SEGMENTED contraction
Prescreening option                         ... SCHWARTZ
   Thresh                                   ... 2.500e-11
   Tcut                                     ... 2.500e-12
   Tpresel                                  ... 2.500e-12 
Coulomb Range Separation                    ... NOT USED
Exchange Range Separation                   ... NOT USED
Multipole approximations                    ... NOT USED
Finite Nucleus Model                        ... NOT USED
CABS basis                                  ... NOT available
Auxiliary Coulomb fitting basis             ... AVAILABLE
   # of basis functions in Aux-J            ...    191
   # of shells in Aux-J                     ...     65
   Maximum angular momentum in Aux-J        ...      4
Auxiliary J/K fitting basis                 ... NOT available
Auxiliary Correlation fitting basis         ... NOT available
Auxiliary 'external' fitting basis          ... NOT available

Checking pre-screening integrals            ... done (  0.0 sec) Dimension = 30
Check shell pair data                       ... done (  0.0 sec)
Shell pair information
Shell pair cut-off parameter TPreSel        ...   2.5e-12
Total number of shell pairs                 ...       465
Shell pairs after pre-screening             ...       464
Total number of primitive shell pairs       ...      1647
Primitive shell pairs kept                  ...      1432
          la=0 lb=0:    152 shell pairs
          la=1 lb=0:    170 shell pairs
          la=1 lb=1:     55 shell pairs
          la=2 lb=0:     51 shell pairs
          la=2 lb=1:     30 shell pairs
          la=2 lb=2:      6 shell pairs

Calculating one electron integrals          ... done (  0.0 sec)
Calculating RI/J V-Matrix + Cholesky decomp.... done (  0.0 sec)
Calculating Nuclear repulsion               ... done (  0.0 sec) ENN=     71.138256528701 Eh

Diagonalization of the overlap matrix:
Smallest eigenvalue                        ... 4.031e-03
Time for diagonalization                   ...    0.001 sec
Threshold for overlap eigenvalues          ... 1.000e-07
Number of eigenvalues below threshold      ... 0
Time for construction of square roots      ...    0.000 sec
Total time needed                          ...    0.001 sec

-------------------
DFT GRID GENERATION
-------------------

General Integration Accuracy     IntAcc      ... 4.388
Radial Grid Type                 RadialGrid  ... OptM3 with GC (2021)
Angular Grid (max. ang.)         AngularGrid ... 4 (Lebedev-302)
Angular grid pruning method      GridPruning ... 4 (adaptive)
Weight generation scheme         WeightScheme... mBecke (2022)
Basis function cutoff            BFCut       ... 1.0000e-11
Integration weight cutoff        WCut        ... 1.0000e-14
Partially contracted basis set               ... off
Rotationally invariant grid construction     ... off
Angular grids for H and He will be reduced by one unit

Total number of grid points                  ...    31357
Total number of batches                      ...      494
Average number of points per batch           ...       63
Average number of grid points per atom       ...     4480
Initializing property integral containers    ... done (  0.0 sec)

SHARK setup successfully completed in   0.3 seconds

Maximum memory used throughout the entire STARTUP-calculation: 10.4 MB


           ************************************************************
           *        Program running with 4 parallel MPI-processes     *
           *              working on a common directory               *
           ************************************************************
Occupation numbers will be reassigned to an Aufbau configuration
             **** ENERGY FILE WAS UPDATED (NEB-TS.en.tmp) ****
Finished Guess after   0.1 sec
Maximum memory used throughout the entire GUESS-calculation: 6.1 MB


           ************************************************************
           *        Program running with 4 parallel MPI-processes     *
           *              working on a common directory               *
           ************************************************************
----------------------------------------D-I-I-S--------------------------------------------
Iteration    Energy (Eh)           Delta-E    RMSDP     MaxDP     DIISErr   Damp  Time(sec)
-------------------------------------------------------------------------------------------
               ***  Starting incremental Fock matrix formation  ***
                              *** Initializing SOSCF ***
---------------------------------------S-O-S-C-F--------------------------------------
Iteration    Energy (Eh)           Delta-E    RMSDP     MaxDP     MaxGrad    Time(sec)
--------------------------------------------------------------------------------------
    1    -153.4310384531633531     0.00e+00  4.01e-04  5.73e-03  9.53e-04     0.1
               *** Restarting incremental Fock matrix formation ***
    2    -153.4311114748702209    -7.30e-05  4.24e-04  5.70e-03  9.71e-04     0.1
    3    -153.4310742799397929     3.72e-05  2.92e-04  4.08e-03  2.07e-03     0.1
    4    -153.4311286443445397    -5.44e-05  2.36e-04  2.75e-03  4.97e-04     0.1
    5    -153.4311303080513369    -1.66e-06  8.38e-05  8.17e-04  3.42e-04     0.1
    6    -153.4311316573239594    -1.35e-06  6.63e-05  7.07e-04  1.85e-04     0.1
    7    -153.4311319760033143    -3.19e-07  4.09e-05  5.00e-04  8.67e-05     0.1
    8    -153.4311322412979166    -2.65e-07  1.03e-05  1.14e-04  2.47e-05     0.1
    9    -153.4311322481607931    -6.86e-09  5.62e-06  6.57e-05  1.98e-05     0.1
                 **** Energy Check signals convergence ****

               *****************************************************
               *                     SUCCESS                       *
               *           SCF CONVERGED AFTER   9 CYCLES          *
               *****************************************************

             **** ENERGY FILE WAS UPDATED (NEB-TS.en.tmp) ****

----------------
TOTAL SCF ENERGY
----------------

Total Energy       :       -153.43113224816079 Eh           -4175.07337 eV

Components:
Nuclear Repulsion  :         71.13825652870096 Eh            1935.77037 eV
Electronic Energy  :       -224.56938877686179 Eh           -6110.84374 eV
One Electron Energy:       -348.63742604728191 Eh           -9486.90667 eV
Two Electron Energy:        124.06803727042013 Eh            3376.06293 eV

Virial components:
Potential Energy   :       -305.50419828603475 Eh           -8313.19187 eV
Kinetic Energy     :        152.07306603787396 Eh            4138.11850 eV
Virial Ratio       :          2.00893035332074

DFT components:
N(Alpha)           :       11.999997231184 electrons
N(Beta)            :       11.999997231184 electrons
N(Total)           :       23.999994462369 electrons
E(X)               :      -19.817846766497 Eh       
E(C)               :       -0.790029470824 Eh       
E(XC)              :      -20.607876237321 Eh       

---------------
SCF CONVERGENCE
---------------

  Last Energy change         ...    6.8629e-09  Tolerance :   1.0000e-08
  Last MAX-Density change    ...    6.5671e-05  Tolerance :   1.0000e-07
  Last RMS-Density change    ...    5.6234e-06  Tolerance :   5.0000e-09
  Last DIIS Error            ...    2.2594e-03  Tolerance :   5.0000e-07
  Last Orbital Gradient      ...    1.9766e-05  Tolerance :   1.0000e-05
  Last Orbital Rotation      ...    7.2482e-05  Tolerance :   1.0000e-05


Total SCF time: 0 days 0 hours 0 min 0 sec 
Finished LeanSCF after   0.8 sec

Maximum memory used throughout the entire LEANSCF-calculation: 7.1 MB


-------------------------------------------------------------------------------
                          DFT DISPERSION CORRECTION                            
                                                                               
                              DFTD3 V3.1  Rev 1                                
                          USING Becke-Johnson damping                          
-------------------------------------------------------------------------------
-------------------------   ----------------
Dispersion correction           -0.003385884
-------------------------   ----------------


-------------------------   --------------------
FINAL SINGLE POINT ENERGY      -153.434518132418
-------------------------   --------------------



           ************************************************************
           *        Program running with 4 parallel MPI-processes     *
           *              working on a common directory               *
           ************************************************************
------------------------------------------------------------------------------
                         ORCA SCF GRADIENT CALCULATION
------------------------------------------------------------------------------

Nuc. rep. gradient        (SHARK) ... done (  0.0 sec)
HCore & Overlap gradient  (SHARK) ... done (  0.0 sec)
Split-RIJ-J gradient      (SHARK) ... done (  0.1 sec)
XC gradient                       ... done (  0.3 sec)
Dispersion correction             ... done (  0.0 sec)

-------------------
DISPERSION GRADIENT
-------------------

   1   C   :    0.000031486    0.000043641    0.000019170
   2   C   :    0.000048372    0.000071130    0.000035178
   3   H   :    0.000046190   -0.000044318    0.000026792
   4   H   :   -0.000173519   -0.000043199   -0.000023822
   5   H   :    0.000043996   -0.000072305   -0.000044733
   6   O   :    0.000089737    0.000033320    0.000012070
   7   H   :   -0.000086262    0.000011731   -0.000024656

Difference to translation invariance:
           :   -0.0000000000   -0.0000000000    0.0000000000

Difference to rotation invariance:
           :   -0.0000000000    0.0000000000   -0.0000000000

Norm of the Dispersion gradient    ...    0.0002755329
RMS gradient                       ...    0.0000601262
MAX gradient                       ...    0.0001735188

------------------
CARTESIAN GRADIENT
------------------

   1   C   :    0.000592385    0.000067694   -0.000813119
   2   C   :   -0.000362708    0.000133041    0.000328494
   3   H   :    0.000535683   -0.000174257   -0.000172619
   4   H   :   -0.001408387    0.000978752    0.000627039
   5   H   :   -0.000344695   -0.000288291    0.000063436
   6   O   :    0.001108105   -0.000802004   -0.000180121
   7   H   :   -0.000120383    0.000085067    0.000146890

Difference to translation invariance:
           :   -0.0000000000    0.0000000000   -0.0000000000

Difference to rotation invariance:
           :   -0.0000045375    0.0000388497    0.0000467754

Norm of the Cartesian gradient     ...    0.0026661663
RMS gradient                       ...    0.0005818052
MAX gradient                       ...    0.0014083866

-------
TIMINGS
-------

Total SCF gradient time     ....        0.408 sec

Densities                   ....       0.000 sec  (  0.0%)
One electron gradient       ....       0.008 sec  (  1.9%)
RI-J Coulomb gradient       ....       0.107 sec  ( 26.3%)
XC gradient                 ....       0.252 sec  ( 61.7%)

Maximum memory used throughout the entire SCFGRAD-calculation: 25.9 MB
------------------------------------------------------------------------------
                         ORCA GEOMETRY RELAXATION STEP
------------------------------------------------------------------------------

Reading the OPT-File                    .... done
Getting information on internals        .... done
Copying old internal coords+grads       .... done
Making the new internal coordinates     .... (2022 redundants) done
Validating the new internal coordinates .... (2022 redundants) done
Calculating the B-matrix                .... done
Calculating the G,G- and P matrices     .... done
Transforming gradient to internals      .... done
Projecting the internal gradient        .... done
Number of atoms                         ....   7
Number of internal coordinates          ....  22
Current Energy                          ....  -153.434518132 Eh
Current gradient norm                   ....     0.002666166 Eh/bohr
Maximum allowed component of the step   ....  0.300
Current trust radius                    ....  0.100
Updating the Hessian (Bofill)           .... done
Diagonalizing the Hessian               .... done
Dimension of the hessian                ....  22
Lowest eigenvalues of the Hessian:
 -0.134955459  0.015714139  0.040243606  0.043191968  0.055369496
Hessian has   1 negative eigenvalues
Taking P-RFO step
Searching for lambda that maximizes along the lowest mode
TS mode is mode number   0 with eigenvalue  -0.13495546 and components:
   1.   -0.12429733
   2.   -0.00890152
   3.    0.55649228
   4.   -0.08747522
   5.   -0.01001744
   6.   -0.70543083
   7.    0.00007141
   8.    0.12767157
   9.   -0.00913771
  10.    0.03361108
  11.   -0.03307970
  12.    0.00127599
  13.    0.02190142
  14.   -0.02610560
  15.    0.07417617
  16.    0.14144489
  17.   -0.21780777
  18.   -0.10153106
  19.   -0.06531649
  20.   -0.18159321
  21.   -0.13617753
  22.   -0.10289731

Lambda that maximizes along the TS mode:       0.00002223
Searching for lambda that minimizes along all other modes
In cycle   1: lambdaN =  -0.00000860   step =   0.00000860
In cycle   2: lambdaN =  -0.00000860   step =   0.00000000
Lambda that minimizes along all other modes:  -0.00000860
The final length of the internal step   ....       0.0167
Converting the step to Cartesian space:
 Initial RMS(Int)=    0.0035522715
Transforming coordinates:
 Iter   0:  RMS(Cart)=    0.0024699354 RMS(Int)=    0.0035524785
done
Storing new coordinates                 .... done
The predicted energy change is          ....     0.000006813
Previously predicted energy change      ....     0.000018371
Actually observed energy change         ....    -0.000003334
Ratio of predicted to observed change   ....     0.181457815
New trust radius                        ....     0.100000000

                                .--------------------.
          ----------------------|Geometry convergence|-------------------------
          Item                value                   Tolerance       Converged
          ---------------------------------------------------------------------
          Energy change      -0.0000033336            0.0000050000      YES
          RMS gradient        0.0004561669            0.0001000000      NO
          MAX gradient        0.0012959894            0.0003000000      NO
          RMS step            0.0035522715            0.0020000000      NO
          MAX step            0.0103175803            0.0040000000      NO
          ........................................................
          Max(Bonds)      0.0055      Max(Angles)    0.17
          Max(Dihed)        0.45      Max(Improp)    0.00
          ---------------------------------------------------------------------

The optimization has not yet converged - more geometry cycles are needed


    ---------------------------------------------------------------------------
                         Redundant Internal Coordinates
                            (Angstroem and degrees)

        Definition                    Value    dE/dq     Step     New-Value  comp.(TS mode)
    ----------------------------------------------------------------------------
     1. B(C   1,C   0)                1.4171 -0.000165 -0.0007    1.4163   
     2. B(H   2,C   1)                1.1087  0.000062 -0.0002    1.1085   
     3. B(H   3,C   1)                1.4970  0.000763  0.0055    1.5024          0.56
     4. B(H   3,C   0)                1.5957 -0.000403  0.0018    1.5974   
     5. B(H   4,C   1)                1.1038  0.000089 -0.0002    1.1035   
     6. B(O   5,H   3)                1.3130 -0.001296 -0.0033    1.3097          0.71
     7. B(O   5,C   1)                2.2338 -0.000134  0.0004    2.2342   
     8. B(O   5,C   0)                1.2874 -0.000071  0.0012    1.2885   
     9. B(H   6,C   0)                1.1128  0.000036 -0.0002    1.1126   
    10. A(C   1,C   0,H   6)          129.77  0.000153   -0.00    129.77   
    11. A(O   5,C   0,H   6)          118.91 -0.000189   -0.01    118.90   
    12. A(C   1,C   0,O   5)          111.29  0.000044    0.01    111.29   
    13. A(H   2,C   1,H   4)          113.15 -0.000294    0.12    113.27   
    14. A(C   0,C   1,H   4)          122.81 -0.000661    0.10    122.91   
    15. A(C   0,C   1,H   2)          112.44  0.000947   -0.05    112.38   
    16. A(C   0,O   5,H   3)           75.70  0.000231    0.17     75.87   
    17. D(H   2,C   1,C   0,O   5)     64.10 -0.000331   -0.24     63.86   
    18. D(H   4,C   1,C   0,O   5)   -155.34 -0.000390    0.05   -155.29   
    19. D(H   4,C   1,C   0,H   6)     22.54 -0.000143   -0.16     22.38   
    20. D(H   2,C   1,C   0,H   6)   -118.02 -0.000084   -0.45   -118.48   
    21. D(H   3,O   5,C   0,H   6)   -167.69 -0.000460    0.15   -167.54   
    22. D(H   3,O   5,C   0,C   1)     10.45 -0.000236   -0.04     10.41   
    ----------------------------------------------------------------------------

Geometry step timings:
Preparation and reading OPT file:      0.000 s (12.801 %)
Internal coordinates            :      0.000 s ( 2.690 %)
B/P matrices and projection     :      0.000 s (15.584 %)
Hessian update/contruction      :      0.000 s (14.100 %)
Making the step                 :      0.000 s (17.532 %)
[...]
   Initial trust radius                 ....   0.400
   Minimum AH scaling param. (alpha)    ....   1.000
   Maximum AH scaling param. (alpha)    .... 1000.000
   Quad. conv. algorithm                .... NR
   White noise on init. David. guess    .... on
   Maximum white noise                  ....   0.010
   Pseudo random numbers                .... off
   Inactive MOs                         .... canonical
   Orbital update algorithm             .... Taylor
   Preconditioner                       .... Diag
   Full preconditioner red. dimension   ....   250
 SOSCF                  CNVSOSCF        .... on
   Start iteration      SOSCFMaxIt      ....   150
   Startup grad/error   SOSCFStart      ....  0.003300
   Hessian update       SOSCFHessUp     .... L-BFGS
 Level Shifting         CNVShift        .... on
   Level shift para.    LevelShift      ....    0.2500
   Turn off err/grad.   ShiftErr        ....    0.0010
 Zerner damping         CNVZerner       .... off
 Static damping         CNVDamp         .... on
   Fraction old density DampFac         ....    0.7000
   Max. Damping (<1)    DampMax         ....    0.9800
   Min. Damping (>=0)   DampMin         ....    0.0000
   Turn off err/grad.   DampErr         ....    0.1000

SCF Procedure:
 Maximum # iterations   MaxIter         ....   125
 SCF integral mode      SCFMode         .... Direct
   Integral package                     .... SHARK and LIBINT hybrid scheme
 Reset frequency        DirectResetFreq ....    20
 Integral Threshold     Thresh          ....  2.500e-11 Eh
 Primitive CutOff       TCut            ....  2.500e-12 Eh

Convergence Tolerance:
 Convergence Check Mode ConvCheckMode   .... Total+1el-Energy
 Convergence forced     ConvForced      .... 0
 Energy Change          TolE            ....  1.000e-08 Eh
 1-El. energy change                    ....  1.000e-05 Eh
 Orbital Gradient       TolG            ....  1.000e-05
 Orbital Rotation angle TolX            ....  1.000e-05
 DIIS Error             TolErr          ....  5.000e-07

---------------------
INITIAL GUESS: MOREAD
---------------------
Guess MOs are being read from file: NEB-TS.gbw
Input Geometry matches current geometry (good)
Input basis set matches current basis set (good)
Occupation numbers will be reassigned to an Aufbau configuration
MOs were renormalized
MOs were reorthogonalized (Cholesky)
                      ------------------
                      INITIAL GUESS DONE (   0.0 sec)
                      ------------------
             **** ENERGY FILE WAS UPDATED (NEB-TS.en.tmp) ****
Finished Guess after   0.1 sec
Maximum memory used throughout the entire GUESS-calculation: 6.1 MB


           ************************************************************
           *        Program running with 4 parallel MPI-processes     *
           *              working on a common directory               *
           ************************************************************

-------------------------------------------------------------------------------------------
                                      ORCA LEAN-SCF
                              memory conserving SCF solver
-------------------------------------------------------------------------------------------

----------------------------------------D-I-I-S--------------------------------------------
Iteration    Energy (Eh)           Delta-E    RMSDP     MaxDP     DIISErr   Damp  Time(sec)
-------------------------------------------------------------------------------------------
               ***  Starting incremental Fock matrix formation  ***
                              *** Initializing SOSCF ***
---------------------------------------S-O-S-C-F--------------------------------------
Iteration    Energy (Eh)           Delta-E    RMSDP     MaxDP     MaxGrad    Time(sec)
--------------------------------------------------------------------------------------
    1    -153.4311303242571967     0.00e+00  2.06e-05  1.97e-04  1.96e-05     0.1
               *** Restarting incremental Fock matrix formation ***
    2    -153.4311305847512585    -2.60e-07  1.40e-05  1.74e-04  3.02e-05     0.1
    3    -153.4311305498933393     3.49e-08  1.03e-05  1.15e-04  6.95e-05     0.1
    4    -153.4311306071303989    -5.72e-08  7.46e-06  1.00e-04  1.89e-05     0.1
    5    -153.4311306109359521    -3.81e-09  2.65e-06  3.60e-05  1.12e-05     0.1
                 **** Energy Check signals convergence ****

               *****************************************************
               *                     SUCCESS                       *
               *           SCF CONVERGED AFTER   5 CYCLES          *
               *****************************************************

             **** ENERGY FILE WAS UPDATED (NEB-TS.en.tmp) ****

----------------
TOTAL SCF ENERGY
----------------

Total Energy       :       -153.43113061093595 Eh           -4175.07332 eV

Components:
Nuclear Repulsion  :         71.12059473236519 Eh            1935.28977 eV
Electronic Energy  :       -224.55172534330114 Eh           -6110.36309 eV
One Electron Energy:       -348.60504027148630 Eh           -9486.02541 eV
Two Electron Energy:        124.05331492818515 Eh            3375.66231 eV

Virial components:
Potential Energy   :       -305.50115263198666 Eh           -8313.10899 eV
Kinetic Energy     :        152.07002202105070 Eh            4138.03567 eV
Virial Ratio       :          2.00895053852032

DFT components:
N(Alpha)           :       11.999997254532 electrons
N(Beta)            :       11.999997254532 electrons
N(Total)           :       23.999994509065 electrons
E(X)               :      -19.817308972320 Eh       
E(C)               :       -0.789998712590 Eh       
E(XC)              :      -20.607307684909 Eh       

---------------
SCF CONVERGENCE
---------------

  Last Energy change         ...    3.8056e-09  Tolerance :   1.0000e-08
  Last MAX-Density change    ...    3.5959e-05  Tolerance :   1.0000e-07
  Last RMS-Density change    ...    2.6497e-06  Tolerance :   5.0000e-09
  Last DIIS Error            ...    1.5406e-04  Tolerance :   5.0000e-07
  Last Orbital Gradient      ...    1.1172e-05  Tolerance :   1.0000e-05
  Last Orbital Rotation      ...    1.9780e-05  Tolerance :   1.0000e-05


----------------
ORBITAL ENERGIES
----------------

  NO   OCC          E(Eh)            E(eV) 
   0   2.0000     -18.782261      -511.0913 
   1   2.0000      -9.992701      -271.9152 
   2   2.0000      -9.888974      -269.0927 
   3   2.0000      -0.967062       -26.3151 
   4   2.0000      -0.660734       -17.9795 
   5   2.0000      -0.537067       -14.6143 
   6   2.0000      -0.451108       -12.2753 
   7   2.0000      -0.402994       -10.9660 
   8   2.0000      -0.380797       -10.3620 
   9   2.0000      -0.339316        -9.2332 
  10   2.0000      -0.284767        -7.7489 
  11   2.0000      -0.198789        -5.4093 
  12   0.0000      -0.085795        -2.3346 
  13   0.0000       0.037614         1.0235 
  14   0.0000       0.061658         1.6778 
  15   0.0000       0.081920         2.2291 
  16   0.0000       0.115772         3.1503 
  17   0.0000       0.188607         5.1323 
  18   0.0000       0.253258         6.8915 
  19   0.0000       0.336072         9.1450 
  20   0.0000       0.375163        10.2087 
  21   0.0000       0.446204        12.1418 
  22   0.0000       0.469496        12.7756 
*Only the first 10 virtual orbitals were printed.
-------
TIMINGS
-------

Total SCF time: 0 days 0 hours 0 min 0 sec 

Total time                  ....       0.490 sec
Sum of individual times     ....       0.473 sec  ( 96.5%)

SCF preparation             ....       0.077 sec  ( 15.6%)
Fock matrix formation       ....       0.373 sec  ( 76.0%)
  Startup                   ....       0.003 sec  (  0.7% of F)
  Split-RI-J                ....       0.069 sec  ( 18.4% of F)
  XC integration            ....       0.294 sec  ( 78.9% of F)
    Basis function eval.    ....       0.081 sec  ( 27.6% of XC)
    Density eval.           ....       0.033 sec  ( 11.3% of XC)
    XC-Functional eval.     ....       0.027 sec  (  9.2% of XC)
    XC-Potential eval.      ....       0.038 sec  ( 13.0% of XC)
Diagonalization             ....       0.000 sec  (  0.0%)
Density matrix formation    ....       0.003 sec  (  0.6%)
Total Energy calculation    ....       0.003 sec  (  0.7%)
Population analysis         ....       0.000 sec  (  0.0%)
Orbital Transformation      ....       0.003 sec  (  0.6%)
Orbital Orthonormalization  ....       0.000 sec  (  0.0%)
DIIS solution               ....       0.004 sec  (  0.8%)
SOSCF solution              ....       0.011 sec  (  2.2%)
Finished LeanSCF after   0.5 sec

Maximum memory used throughout the entire LEANSCF-calculation: 7.8 MB


-------------------------------------------------------------------------------
                          DFT DISPERSION CORRECTION                            
                                                                               
                              DFTD3 V3.1  Rev 1                                
                          USING Becke-Johnson damping                          
-------------------------------------------------------------------------------
The PBE functional is recognized
Active option DFTDOPT                   ...         4   

molecular C6(AA) [au] = 413.668338 


            DFT-D V3
 parameters
 s6 scaling factor         :     1.0000 
 a1 scaling factor         :     0.4289 
 s8 scaling factor         :     0.7875 
 a2 scaling factor         :     4.4407 
 ad hoc parameters k1-k3   :    16.0000     1.3333    -4.0000 

 Edisp/kcal,au: -2.127143722357  -0.003389818932 
 E6   /kcal   :  -1.535828095 
 E8   /kcal   :  -0.591315627 
 % E8         :  27.798574256 

-------------------------   ----------------
Dispersion correction           -0.003389819
-------------------------   ----------------


-------------------------   --------------------
FINAL SINGLE POINT ENERGY      -153.434520429868
-------------------------   --------------------

                                *** OPTIMIZATION RUN DONE ***



                    ***********************HURRAY************************
                    ***        THE TS OPTIMIZATION HAS CONVERGED      ***
                    *****************************************************



---------------------------------------------------------------
                      PATH SUMMARY FOR NEB-TS             
---------------------------------------------------------------
All forces in Eh/Bohr. Global forces for TS.

Image     E(Eh)   dE(kcal/mol)  max(|Fp|)  RMS(Fp)
  0    -153.53120     0.00       0.00505   0.00314
  1    -153.49997    19.59       0.00107   0.00045
  2    -153.45468    48.01       0.00159   0.00071
  3    -153.43451    60.67       0.00162   0.00076 <= CI
 TS    -153.43452    60.67       0.00015   0.00005 <= TS
  4    -153.46100    44.05       0.00164   0.00095
  5    -153.49242    24.33       0.00153   0.00083
  6    -153.51375    10.95       0.01255   0.00446
----------
STATISTICS
----------

For the individual parts of the NEB, NEB-CI or NEB-TS run:

Number of iterations:
     NEB                               ... 25  73.5%
     TS optimization                   ... 9  26.5%
Number of SCF / gradient calculations:
     NEB                               ... 152  94.4%
     TS optimization                   ... 9  5.6%

----------
 TIMINGS
----------

For the individual parts of the NEB, NEB-CI or NEB-TS run:

Total                                  ...      203.521 sec
NEB                                    ...      184.951 sec  90.9%
TS Optimization                        ...       18.570 sec  9.1%



           ************************************************************
           *        Program running with 4 parallel MPI-processes     *
           *              working on a common directory               *
           ************************************************************

------------------------------------------------------------------------------
                              ORCA PROPERTY CALCULATIONS
------------------------------------------------------------------------------

GBWName                                 ... NEB-TS.gbw
Number of atoms                         ...      7
Number of basis functions               ...     62
Max core memory                         ...    750 MB

Electric properties:
Dipole moment                           ... YES
Quadrupole moment                       ...  NO
Static polarizability (Dipole/Dipole)   ...  NO
Static polarizability (Dipole/Quad.)    ...  NO
Static polarizability (Quad./Quad.)     ...  NO
Static polarizability (Velocity)        ...  NO

Atomic electric properties:
Dipole moment                           ...  NO
Quadrupole moment                       ...  NO
Static polarizability                   ...  NO

Choice of electric origin               ... Center of mass
Position of electric origin             ...    -0.364860     0.769210     0.238841

General magnetic properties:
Magnetizability                         ...  NO

EPR properties:
g-Tensor (aka g-matrix)                 ...  NO
Zero-Field splitting spin-orbit         ...  NO
Zero-field splitting spin-spin          ...  NO
Hyperfine couplings                     ...  NO (   0 nuclei)
Quadrupole couplings                    ...  NO (   0 nuclei)
Contact density                         ...  NO (   0 nuclei)

NMR properties:
Chemical shifts                         ...  NO (   0 nuclei)
Spin-rotation constants                 ...  NO (   0 nuclei)
Spin-spin couplings                     ...  NO (   0 nuclei,    0 pairs)

Choice of magnetic origin               ... GIAO
Position of magnetic origin             ...     0.000000     0.000000     0.000000

Properties with geometric perturbations:
SCF Hessian                             ...  NO
IR spectrum                             ...  NO
VCD spectrum                            ...  NO
X-ray spectroscopy properties:
SCF XES/XAS/RIXS spectra                ...  NO


-------------
DIPOLE MOMENT
-------------

Method             : SCF
Type of density    : Electron Density
Multiplicity       :   1
Irrep              :   0
Energy             :  -153.4311306109359521 Eh
Relativity type    : 
Basis              : AO
                                X                 Y                 Z
Electronic contribution:     -1.451293903       2.083961535       0.590464679
Nuclear contribution   :      1.291558365      -2.577841711      -0.749829649
                        -----------------------------------------
Total Dipole Moment    :     -0.159735538      -0.493880175      -0.159364970
                        -----------------------------------------
Magnitude (a.u.)       :      0.542982747
Magnitude (Debye)      :      1.380152460



--------------------
Rotational spectrum 
--------------------
 
Rotational constants in cm-1:             1.613754             0.402773             0.335162 
Rotational constants in MHz :         48379.115723         12074.840538         10047.909731 

Dipole components along the rotational axes: 
x,y,z [a.u.] :    -0.395328    -0.336173     0.159793 
x,y,z [Debye]:    -1.004843    -0.854485     0.406162 

 

Dipole moment calculation done in   0.0 sec 

Maximum memory used throughout the entire PROP-calculation: 4.8 MB

--------------------------------
SUGGESTED CITATIONS FOR THIS RUN
--------------------------------

Below you find a list of papers that are relevant to this ORCA run
We neither can nor want to force you to cite these papers, but we appreciate if you do
You receive ORCA, which is the product of decades of hard work by many enthusiastic individuals, for free
The only thing we kindly ask in return is that you cite our papers,
We deeply appreciate it, if you show your appreciation for ORCA by not just citing the generic ORCA reference.

Please note that relegating all ORCA citations to the supporting information does *not* help us.
SI sections are not indexed - citations you put there will not count into any citation statistics
But we need these citations in order to attract the funding resources that allow us to do what we are doing

Therefore, if you are a happy ORCA user, please consider citing a few of the papers listed below in the main body of your paper

In addition to the list printed below, the program has created the file NEB-TS.bibtex that contains the list in bibtex format
You can import this file easily into all common literature databanks and citation aid programs


List of essential papers. We consider these as the minimum necessary citations

  1. Neese,F.
     Software update: the ORCA program system, version 5.0
     WIRES Comput. Molec. Sci., 2022 12(1)e1606
     doi.org/10.1002/wcms.1606

List of papers to cite with high priority. The work reported in these papers was absolutely
necessary for this run to complete.
Our perspective: the developers of density functionals and basis sets usually get cited in chemistry papers
Good! But without the algorithms to do something with them, the functionals or basis sets would not do anything.
Hence, in our opinion, the algorithm design and method developments papers are equally worthy of getting cited

  1. Neese,F.
     An improvement of the resolution of the identity approximation for the formation of the Coulomb matrix
     J. Comp. Chem., 2003 24(14)1740-1747
     doi.org/10.1002/jcc.10318
  2. Asgeirsson,V.; Orri Birgisson,B.; Björnsson,R.; Becker,U.; Neese,F.; Riplinger,C.; Jonsson,H.
     Nudged Elastic Band Method for Molecular Reactions Using Energy-Weighted Springs Combined with Eigenvector Following
     J. Chem. Theory Comput., 2021 17 4929-4945
     doi.org/10.1021/acs.jctc.1c00462
  3. Neese,F.
     The SHARK Integral Generation and Digestion System
     J. Comp. Chem., 2022  1-16
     doi.org/10.1002/jcc.26942
  4. Grimme,S.; Antony,J.; Ehrlich,S.; Krieg,H.
     A consistent and accurate ab initio parametrization of density functional dispersion correction (DFT-D) for the 94 elements H-Pu
     J. Chem. Phys., 2010 132 154104
     doi.org/10.1063/1.3382344
  5. Grimme,S.; Ehrlich,S.; Goerigk,L.
     Effect of the damping function in dispersion corrected density functional theory
     J. Comput. Chem., 2011 32(7)1456-1465
     doi.org/10.1002/jcc.21759

List of suggested additional citations. These are papers that are important in the 'surrounding' of 
of this run, or papers that preceded the highly important papers. If you like your results we are grateful for a citation.

  1. Neese,F.
     The ORCA program system
     WIRES Comput. Molec. Sci., 2012 2(1)73-78
     doi.org/10.1002/wcms.81
  2. Neese,F.
     Software update: the ORCA program system, version 4.0
     WIRES Comput. Molec. Sci., 2018 8(1)1-6
     doi.org/10.1002/wcms.1327
  3. Neese,F.; Wennmohs,F.; Becker,U.; Riplinger,C.
     The ORCA quantum chemistry program package
     J. Chem. Phys., 2020 152 Art. No. L224108
     doi.org/10.1063/5.0004608

List of optional additional citations

  1. Neese,F.
     Approximate second-order SCF convergence for spin unrestricted wavefunctions
     Chem. Phys. Lett., 2000 325(1-3)93-98
     doi.org/10.1016/s0009-2614(00)00662-x

Timings for individual modules:

Sum of individual times          ...      206.560 sec (=   3.443 min)
Startup calculation              ...        4.309 sec (=   0.072 min)   2.1 %
SCF iterations                   ...       10.653 sec (=   0.178 min)   5.2 %
Property calculations            ...        0.162 sec (=   0.003 min)   0.1 %
SCF Gradient evaluation          ...        6.453 sec (=   0.108 min)   3.1 %
Geometry relaxation              ...        0.031 sec (=   0.001 min)   0.0 %
NEB Iterations                   ...      184.951 sec (=   3.083 min)  89.5 %
                             ****ORCA TERMINATED NORMALLY****
TOTAL RUN TIME: 0 days 0 hours 3 minutes 25 seconds 393 msec
