
                                 *****************
                                 * O   R   C   A *
                                 *****************

                                            #,                                       
                                            ###                                      
                                            ####                                     
                                            #####                                    
                                            ######                                   
                                           ########,                                 
                                     ,,################,,,,,                         
                               ,,#################################,,                 
                          ,,##########################################,,             
                       ,#########################################, ''#####,          
                    ,#############################################,,   '####,        
                  ,##################################################,,,,####,       
                ,###########''''           ''''###############################       
              ,#####''   ,,,,##########,,,,          '''####'''          '####       
            ,##' ,,,,###########################,,,                        '##       
           ' ,,###''''                  '''############,,,                           
         ,,##''                                '''############,,,,        ,,,,,,###''
      ,#''                                            '''#######################'''  
     '                                                          ''''####''''         
             ,#######,   #######,   ,#######,      ##                                
            ,#'     '#,  ##    ##  ,#'     '#,    #''#        ,####,    ,#,          
            ##       ##  ##   ,#'  ##            #'  '#       #'       ,# #          
            ##       ##  #######   ##           ,######,      #####,      #          
            '#,     ,#'  ##    ##  '#,     ,#' ,#      #,     #,   #      #          
             '#######'   ##     ##  '#######'  #'      '#     '####' #    #          



                #########################################################
                #                        -***-                          #
                #          Department of theory and spectroscopy        #
                #                                                       #
                #                      Frank Neese                      #
                #                                                       #
                #     Directorship, Architecture, Infrastructure        #
                #                    SHARK, DRIVERS                     #
                #        Core code/Algorithms in most modules           #
                #                                                       #
                #        Max Planck Institute fuer Kohlenforschung      #
                #                Kaiser Wilhelm Platz 1                 #
                #                 D-45470 Muelheim/Ruhr                 #
                #                      Germany                          #
                #                                                       #
                #                  All rights reserved                  #
                #                        -***-                          #
                #########################################################


                         Program Version 6.1.0  -  RELEASE   -
                                (GIT: $679e74b$)
                          ($2025-06-10 18:02:51 +0200$)


 With contributions from (in alphabetic order):
[Max-Planck-Institut fuer Kohlenforschung]                               
  Daniel Aravena         : Magnetic Suceptibility                        
  Michael Atanasov       : Ab Initio Ligand Field Theory (pilot matlab implementation)
  Alexander A. Auer      : GIAO ZORA, VPT2 properties, NMR spectrum      
  Ute Becker             : All parallelization in ORCA, NUMFREQ, NUMCALC 
  Giovanni Bistoni       : ED, misc. LED, open-shell LED, HFLD           
  Dmytro Bykov           : pre 5.0 version of the SCF Hessian            
  Marcos Casanova-Páez   : Triplet and SCS-CIS(D). UHF-(DLPNO)-IP/EA/STEOM-CCSD. UHF-CVS-IP/STEOM-CCSD   
  Vijay G. Chilkuri      : MRCI spin determinant printing, contributions to CSF-ICE 
  Pauline Colinet        : FMM embedding                                 
  Dipayan Datta          : RHF DLPNO-CCSD density                        
  Achintya Kumar Dutta   : EOM-CC, STEOM-CC                              
  Nicolas Foglia         : Exact transition moments, OPA infrastructure, MCD improvements    
  Dmitry Ganyushin       : Spin-Orbit,Spin-Spin,Magnetic field MRCI      
  Miquel Garcia-Rates    : C-PCM and meta-GGA Hessian, CCSD/C-PCM, Gaussian charge scheme 
  Tiago L. C. Gouveia    : GS-ROHF, GS-ROCIS                             
  Yang Guo               : DLPNO-NEVPT2, F12-NEVPT2, CIM, IAO-localization        
  Andreas Hansen         : Spin unrestricted coupled pair/coupled cluster methods 
  Ingolf Harden          : AUTO-CI MPn and infrastructure                
  Benjamin Helmich-Paris : MC-RPA, TRAH-(SCF,CASSCF), AVAS, COSX integrals, SCF dyn. polar., MC-PDFT, srDFT 
  Lee Huntington         : MR-EOM, pCC                                   
  Robert Izsak           : Overlap fitted RIJCOSX, COSX-SCS-MP3, EOM     
  Riya Kayal             : Wick's Theorem for AUTO-CI, AUTO-CI UHF-CCSDT 
  Emily Kempfer          : AUTO-CI RHF CISDT and CCSDT, approximate NEVPT4
  Christian Kollmar      : KDIIS, OOCD, Brueckner-CCSD(T), CCSD density, CASPT2, CASPT2-K, improved NEVPT2 
  Axel Koslowski         : Symmetry handling                             
  Simone Kossmann        : meta-GGA functionals, TD-DFT gradient, OOMP2, (MP2 Hessian; deprecated post 5.0) 
  Lucas Lang             : DCDCAS, Hyperfine gauge corrections, ICE-SOC+SSC
  Marvin Lechner         : AUTO-CI (C++ implementation), FIC-MRCC        
  Spencer Leger          : CASSCF response                               
  Dagmar Lenk            : GEPOL surface, SMD, ORCA-2-JSON               
  Dimitrios Liakos       : Extrapolation schemes; Compound Job, Property file
  Dimitrios Manganas     : Further ROCIS development; embedding schemes. LFT, Crystal Embedding 
  Dimitrios Pantazis     : SARC Basis sets                               
  Anastasios Papadopoulos: AUTO-CI, single reference methods and gradients 
  Taras Petrenko         : pre 6.0 DFT Hessian and TD-DFT gradient,  ECA, NRVS 
  Petra Pikulova         : Analytic Raman intensities                    
  Peter Pinski           : DLPNO-MP2, DLPNO-MP2 Gradient                 
  Shashank Vittal Rao    : ES-AILFT, MagRelax                            
  Christoph Reimann      : Effective Core Potentials                     
  Marius Retegan         : Local ZFS, SOC                                
  Christoph Riplinger    : Optimizer, TS searches, QM/MM, DLPNO-CCSD(T), (RO)-DLPNO pert. Triples 
  Michael Roemelt        : Original ROCIS implementation, recursive CI coupling coefficients
  Masaaki Saitow         : Open-shell DLPNO-CCSD energy and density      
  Barbara Sandhoefer     : DKH picture change effects                    
  Yorick L. A. Schmerwitz: GMF and freeze-and-release deltaSCF, NEB S-IDPP initial path                    
  Kantharuban Sivalingam : CASSCF convergence/infrastructure, NEVPT2, NEVPT3, NEVPT4(SD), FIC-MRCI and CEPA variants
  Bernardo de Souza      : ESD, SOC TD-DFT                               
  Georgi L. Stoychev     : AutoAux, RI-MP2 NMR, DLPNO-MP2 response, X2C  
  Van Anh Tran           : RI-MP2 g-tensors                              
  Willem Van den Heuvel  : Paramagnetic NMR                              
  Zikuan Wang            : NOTCH, Electric field optimization            
  Frank Wennmohs         : Technical directorship and infrastructure     
  Hang Xu                : AUTO-CI-Response properties                   
                                                                         
[FACCTs GmbH]                                                            
  Markus Bursch, Nicolas Foglia, Miquel Garcia-Rates, Ingolf Harden, Hagen Neugebauer, Anastasios Papadopoulos, 
  Christoph Riplinger, Bernardo de Souza, Georgi L. Stoychev                                                    
                                                                 
  APM, various basis sets, CI-OPT, improved COSX, DLPNO-Multilevel,           
  DOCKER, DRACO, updates on ESD, Fragmentator, GOAT, IRC, LR-CPCM, L-BFGS, MBIS, meta-GGA TD-DFT gradient, ML-optimized integration grids, 
  MM, NACMEs, nearIR, NEB, NEB-TS, NL-DFT gradient (VV10), 2- and 3-layer-ONIOM, interface openCOSMO-RS, QMMM,   
  Crystal-QMMM, RESP, rigid body optimization, SF, symmetry and pop. for TD-DFT, various functionals, SOLVATOR                                   
                                                                         
[Other institutions]                                                     
  V. Asgeirsson          : NEB                                           
  Christoph Bannwarth    : sTDA-DFT, sTD-DFT, PBEh-3c, B97-3c, D3        
  Giovanni Bistoni       : ETS/NOCV, ADLD/ADEX, COVALED                  
  Martin Brehm           : Molecular dynamics                            
  Ronald Cardenas        : ETS/NOCV                                      
  Martina Colucci        : COVALED                                       
  Sebastian Ehlert       : rSCAN, r2SCAN, r2SCAN-3c, D4, dhf basis sets  
  Marvin Friede          : D4 for Fr, Ra, Ac-Lr                          
  Lars Goerigk           : TD-DFT with DH, B97 family of functionals     
  Stefan Grimme          : VdW corrections, initial TS optimization, DFT functionals, gCP, sTDA/sTD-DF 
  Waldemar Hujo          : DFT-NL                                        
  H. Jonsson             : NEB                                           
  Holger Kruse           : gCP                                           
  Marcel Mueller         : wB97X-3c, vDZP basis set                      
  Hagen Neugebauer       : wr2SCAN, Native XTB                           
  Gianluca Regni         : ADLD/ADEX                                     
  Tobias Risthaus        : pre 6.0 range-separated hybrid DFT and stability analysis
  Lukas Wittmann         : regularized MP2, r2SCAN double-hybrids, wr2SCAN        
                                                                         
We gratefully acknowledge several colleagues who have allowed us to      
interface, adapt or use parts of their codes:                            
  Ed Valeev, F. Pavosevic, A. Kumar             : LibInt (2-el integral package), F12 methods 
  Garnet Chan, S. Sharma, J. Yang, R. Olivares  : DMRG                   
  Ulf Ekstrom                                   : XCFun DFT Library      
  Mihaly Kallay                                 : mrcc  (arbitrary order and MRCC methods)
  Frank Weinhold                                : gennbo (NPA and NBO analysis)           
  Simon Mueller                                 : openCOSMO-RS                            
  Christopher J. Cramer and Donald G. Truhlar   : smd solvation model                     
  S Lehtola, MJT Oliveira, MAL Marques          : LibXC Library                           
  Liviu Ungur et al                             : ANISO software                          


 Your calculation uses the libint2 library for the computation of 2-el integrals
 For citations please refer to: http://libint.valeyev.net

 Your ORCA version has been built with support for libXC version: 7.0.0
 For citations please refer to: https://libxc.gitlab.io

 This ORCA versions uses:
   CBLAS   interface :  Fast vector & matrix operations
   LAPACKE interface :  Fast linear algebra routines
   SCALAPACK package :  Parallel linear algebra routines
   Shared memory     :  Shared parallel matrices
   BLAS/LAPACK       :  OpenBLAS 0.3.29  USE64BITINT DYNAMIC_ARCH NO_AFFINITY Haswell SINGLE_THREADED
        Core in use  :  Haswell
   Copyright (c) 2011-2014, The OpenBLAS Project


  ***********************************
  * Starting time: Fri Sep 26 19:46:57 2025
  * Host name:     Host-001
  * Process ID:    15549
  * Working dir.:  /home/ppravatto/Documenti/Esperimenti/ChimicaComputazionale/SPyCCI/NEB_reactant_NEB_product_ld1padjq_orca_PBE_def2-SVP_vacuum_NEB-TS
  ***********************************

NOTE: MaxCore=750 MB was set to SCF,MP2,MDCI,CIPSI,MRCI,RASCI and CIS
      => If you want to overwrite this, your respective input block should be placed after the MaxCore statement


***************************************
The coordinates will be read from file: NEB_reactant.xyz
***************************************


Your calculation utilizes the atom-pairwise dispersion correction
with the Becke-Johnson damping scheme (D3BJ)


Your calculation utilizes a Nudged-Elastic-Band implementation
by V. Ásgeirsson, C. Riplinger & H. Jónsson
Please cite in your paper:
Ásgeirsson, V.; Birgisson, B. O.; Bjornsson, R.; Becker, U.; Neese, F.; Riplinger, R.;
Jónsson H. J. Chem. Theory Comput. 2021, 17, 4929-4945
   

Warning: RI is on but no J-basis has been assigned. Assigning Def2/J (nothing to worry about!)
================================================================================

----- Orbital basis set information -----
Your calculation utilizes the basis: def2-SVP
   F. Weigend and R. Ahlrichs, Phys. Chem. Chem. Phys. 7, 3297 (2005).

----- AuxJ basis set information -----
Your calculation utilizes the auxiliary basis: def2/J
   H-Rn: F. Weigend, Phys. Chem. Chem. Phys. 8, 1057 (2006).
   Fr-Lr: K. Eichkorn, F. Weigend, O. Treutler, R. Ahlrichs; Theor. Chem. Acc. 97, 119 (1997).

================================================================================
                                        WARNINGS
                       Please study these warnings very carefully!
================================================================================


WARNING: Geometry Optimization
  ===> : Switching off AutoStart
         For restart on a previous wavefunction, please use MOREAD

================================================================================
                                       INPUT FILE
================================================================================
NAME = input.inp
|  1> %pal
|  2>   nprocs 8
|  3> end
|  4> 
|  5> %maxcore 750
|  6> 
|  7> ! PBE def2-SVP D3BJ
|  8> ! NEB-TS
|  9> 
| 10> %neb
| 11>   product "NEB_product.xyz"
| 12>   nimages 5
| 13> end
| 14> 
| 15> * xyzfile 0 1 NEB_reactant.xyz
| 16> 
| 17> 
| 18>                          ****END OF INPUT****
================================================================================


--------------------------------------------------------------------------------
                        Nudged Elastic Band Calculation
--------------------------------------------------------------------------------

Number of images (incl. end points)     ....  7
Number of intermediate images           ....  5
Number of optimized images              ....  5
Optimization of end points before NEB   ....  NO
Use existing gbw files for MO input     ....  NO
Number of atoms                         ....  7
Number of (active) degrees of freedom   ....  21
Constrained atoms                       ....  None

-----------------------------------------
  REACTANT (ANGSTROEM)
-----------------------------------------
C     -4.283709     1.625615    -0.002642 
C     -2.974068     0.889792     0.008208 
H     -3.024283     0.063020     0.735501 
H     -2.144976     1.563000     0.255117 
H     -2.807253     0.423646    -0.976643 
O     -4.416673     2.808623     0.230366 
H     -5.177487     0.992025    -0.249898 

-----------------------------------------
  PRODUCT (ANGSTROEM)
-----------------------------------------
C     -4.278583     1.484518     0.033611 
C     -3.070429     0.911286     0.052179 
H     -2.193945     1.412820     0.468350 
H     -3.806505     3.140723     0.865082 
H     -2.937113    -0.087695    -0.356607 
O     -4.609602     2.722461     0.502765 
H     -5.158632     0.988607    -0.380772 



----------------------
NEB settings
----------------------
Method type                             ....  climbing image
Threshold for climbing image            ....  2.00e-02 Eh/Bohr 
Free endpoints                          ....  off 
Tangent type                            ....  improved 
Number of intermediate images           ....  5 
Number of images free to move           ....  5 
Spring type for image distribution      ....  distance between adjacent images 
Spring constant                         ....  energy weighted (0.0100 -to- 0.1000) Eh/Bohr^2 
Spring force perp. to the path          ....  none 
Generation of initial path              ....  image dependent pair potential 
Initial path via TS guess               ....  off 

Minimization of RMSD: Rotation          ....  always 
Minimization of RMSD: Translation type  ....  centroid 
Center fixed to origin                  ....  true 
Remove external force                   ....  true 

Reparametrization of the path           ....  off 
Convergence thresholds:
Convergence monitored for               ....  all images
Scaling factor                          ....  10.00

Convergence parameters for regular images:
               Max(|Fp|)                ....  2.00e-02 Eh/Bohr
               RMS(Fp)                  ....  1.00e-02 Eh/Bohr

Convergence parameters for climbing image:
               Max(|F|)                 ....  2.00e-03 Eh/Bohr
               RMS(F)                   ....  1.00e-03 Eh/Bohr
Optimization method:
Method                                  ....  L-BFGS
Max. iterations                         ....  500 
Step size                               ....  1.00 
Maximum allowed step size               ....  0.10 Bohr

LBFGS parameters: 
               Memory                   ....  20 
               Initial step size        ....  0.0010 
               Estimate curvature       ....  YES 
               Reset on maxmove         ....  YES 
               Reparam. on reset        ....  NO 
Generation of  the initial path:
Minimize RMSD between reactant and product configurations     .... done
       RMSD before minimization         ....  1.2396 Bohr
       RMSD after minimization          ....  0.9888 Bohr
Performing linear interpolation         ....  done
Generating initial path 1 out of 129 -> Success!
Displacement along initial path:              4.6915 Bohr
Writing initial trajectory to file      ....  input_initial_path_trj.xyz



----------------------
NEB OPTIMIZATION      
----------------------

Following output files will be written:
Energy profile during opt. written to    ....  input.interp
Optimization log-file                    ....  input.NEB.log
Current trajectory will be written to    ....  input_MEP_trj.xyz
       and to allxyz file                ....  input_MEP.allxyz
       and individual images to xyz file ....  input_im{NIm}.xyz
Trajectory history will be written to    ....  input_MEP_ALL_trj.xyz
Converged CI will be written to          ....  input_NEB-CI_converged.xyz
Converged TS will be written to          ....  input_NEB-TS_converged.xyz

Single point energy and gradient calculation of reactant and
product configurations (have to be performed only once)
Properties of fixed NEB end points:
               Reactant:
                         E               ....   -153.531199 Eh
                         RMS(F)          ....      0.003160 Eh/Bohr
                         MAX(|F|)        ....      0.004948 Eh/Bohr
               Product:
                         E               ....   -153.513746 Eh
                         RMS(F)          ....      0.004489 Eh/Bohr
                         MAX(|F|)        ....      0.012592 Eh/Bohr



Starting iterations:

Optim.  Iteration  HEI  E(HEI)-E(0)  max(|Fp|)   RMS(Fp)    dS
Switch-on CI threshold               0.020000 
   LBFGS     0      3    0.132884    0.077186   0.019692  4.6915       
   LBFGS     1      3    0.128124    0.066819   0.016736  4.7117       
   LBFGS     2      3    0.125319    0.058717   0.014239  4.8160       
   LBFGS     3      3    0.121793    0.038029   0.011002  4.8085       
   LBFGS     4      3    0.119760    0.046348   0.010854  4.8342       
   LBFGS     5      3    0.115177    0.048779   0.010555  4.9072       
   LBFGS     6      3    0.111757    0.048722   0.010167  4.9373       
   LBFGS     7      3    0.110006    0.025226   0.006903  4.9493       
   LBFGS     8      3    0.104218    0.022404   0.006441  5.0415       
   LBFGS     9      3    0.102929    0.028030   0.006753  5.0637       
   LBFGS    10      3    0.102086    0.020660   0.005523  5.0877       
   LBFGS    11      3    0.099484    0.018735   0.005172  5.2203       

Image  3 will be converted to a climbing image in the next iteration (max(|Fp|) < 0.0200) 

Optim.  Iteration  CI   E(CI)-E(0)   max(|Fp|)   RMS(Fp)    dS     max(|FCI|)   RMS(FCI)
Convergence thresholds               0.020000   0.010000            0.002000    0.001000 
   LBFGS    12      3    0.099013    0.017027   0.004431  5.2434    0.011301    0.004732       
   LBFGS    13      3    0.098745    0.009123   0.002673  5.2512    0.006300    0.003214       
   LBFGS    14      3    0.098310    0.011848   0.002917  5.2849    0.005254    0.002597       
   LBFGS    15      3    0.097503    0.020199   0.004274  5.3798    0.007723    0.003621       
   LBFGS    16      3    0.097097    0.026183   0.005627  5.5396    0.009691    0.004677       
   LBFGS    17      3    0.096905    0.008799   0.002017  5.5845    0.004987    0.002214       
   LBFGS    18      3    0.096925    0.002595   0.000895  5.5601    0.003266    0.001224       
   LBFGS    19      3    0.096903    0.003140   0.000903  5.5574    0.002921    0.001051       
   LBFGS    20      3    0.096791    0.007989   0.001407  5.5613    0.002999    0.001345       
   LBFGS    21      3    0.096645    0.008269   0.001600  5.5699    0.004268    0.001676       
   LBFGS    22      3    0.096617    0.003816   0.000887  5.5801    0.003825    0.001480       
   LBFGS    23      3    0.096685    0.003722   0.000806  5.5899    0.001619    0.000672       

                                .--------------------.
          ----------------------| CI-NEB convergence |-------------------------
          Item                value                   Tolerance       Converged
          ---------------------------------------------------------------------
          RMS(Fp)             0.0008055680            0.0100000000      YES
          MAX(|Fp|)           0.0037221915            0.0200000000      YES
          RMS(FCI)            0.0006715574            0.0010000000      YES
          MAX(|FCI|)          0.0016186487            0.0020000000      YES
          ---------------------------------------------------------------------

The elastic band and climbing image have converged successfully to a MEP in 23 iterations!


                    *********************H U R R A Y*********************
                    ***        THE NEB OPTIMIZATION HAS CONVERGED     ***
                    *****************************************************



---------------------------------------------------------------
                         PATH SUMMARY              
---------------------------------------------------------------
All forces in Eh/Bohr.

Image Dist.(Ang.)    E(Eh)   dE(kcal/mol)  max(|Fp|)  RMS(Fp)
  0     0.000    -153.53120      0.00       0.00506   0.00313
  1     0.899    -153.50087     19.03       0.00142   0.00077
  2     1.204    -153.45735     46.34       0.00372   0.00139
  3     1.451    -153.43451     60.67       0.00100   0.00049 <= CI
  4     1.723    -153.45849     45.63       0.00195   0.00081
  5     2.128    -153.49290     24.03       0.00164   0.00085
  6     2.958    -153.51375     10.95       0.01258   0.00447

Straight line distance between images along the path:
        D( 0- 1) =   0.8987 Ang.
        D( 1- 2) =   0.3051 Ang.
        D( 2- 3) =   0.2469 Ang.
        D( 3- 4) =   0.2724 Ang.
        D( 4- 5) =   0.4044 Ang.
        D( 5- 6) =   0.8305 Ang.

---------------------------------------------------------------
               INFORMATION ABOUT SADDLE POINT     
---------------------------------------------------------------

Climbing image                            ....  3 
Energy                                    ....  -153.43451335 Eh
Max. abs. force                           ....  1.6186e-03 Eh/Bohr

-----------------------------------------
  SADDLE POINT (ANGSTROEM)
-----------------------------------------
C     -0.663016     0.280545    -0.096082 
C      0.509346    -0.513501    -0.168688 
H      0.838495    -0.867700     0.830241 
H      0.747890     0.867578     0.388679 
H      0.696028    -1.243801    -0.975153 
O     -0.460327     1.368410     0.561191 
H     -1.668418     0.108469    -0.540187 

-----------------------------------------
  FORCES (Eh/Bohr)
-----------------------------------------
C     -0.000703     0.000312     0.000030 
C      0.000764     0.001358     0.001203 
H     -0.000515     0.000261    -0.000498 
H      0.000387    -0.001619    -0.000900 
H     -0.000178     0.000312     0.000133 
O      0.000247    -0.000013     0.000375 
H     -0.000002    -0.000612    -0.000342 

-----------------------------------------
  UNIT TANGENT
-----------------------------------------
C      0.106195    -0.151692    -0.126419 
C     -0.176007    -0.293854    -0.102007 
H      0.159668     0.142775    -0.066349 
H     -0.404647     0.531657     0.346258 
H     -0.092355    -0.207332    -0.049680 
O      0.359776    -0.096843     0.047621 
H      0.047369     0.075289    -0.049422 
 => Unit tangent is an approximation to the TS mode at the saddle point

Next a TS optimization is performed on the CI from the NEB run.

         *************************************************************
         *                       TS OPTIMIZATION                     *
         *************************************************************


Following output files will be written:
Converged TS will be written to          ....  input_NEB-TS_converged.xyz
                                         ....  input.xyz
Current trajectory will be written to    ....  input_trj.xyz
Initial Hessian will be stored in        ....  input.appr.hess
 (Almloef) Geometry optimization settings:
Update method            Update   .... Bofill
Choice of coordinates    CoordSys .... (2022) Redundant Internals
Initial Hessian          InHess   .... Read
Max. no of cycles        MaxIter  .... 50

Convergence Tolerances:
Energy Change            TolE     ....  5.0000e-06 Eh
Max. Gradient            TolMAXG  ....  3.0000e-04 Eh/bohr
RMS Gradient             TolRMSG  ....  1.0000e-04 Eh/bohr
Max. Displacement        TolMAXD  ....  4.0000e-03 bohr
RMS Displacement         TolRMSD  ....  2.0000e-03 bohr
Strict Convergence                .... False

------------------------------------------------------------------------------
                        ORCA OPTIMIZATION COORDINATE SETUP
------------------------------------------------------------------------------

The optimization will be done in redundant internal coordinates (2022)
Making redundant internal coordinates   ...  (2022 redundants) done
Following TS mode number                ...     0
TS-active-atoms for coordinate setup... 1 3 5 
Evaluating the initial hessian          ... (Reading Exact Hessian)...  
InHessName: input.appr.hess	The file <input.appr.hess> is opened as a .hess file
done
done
Evaluating the coordinates              ...  done
Calculating the B-matrix                .... done
Calculating the G-matrix                .... done
The number of degrees of freedom        ....   22

    -----------------------------------------------------------------
                    Redundant Internal Coordinates


    -----------------------------------------------------------------
         Definition                    Initial Value    d2E/dq (diagonal element)
    -----------------------------------------------------------------
      1. B(C   1,C   0)                  1.4178         0.381277   
      2. B(H   2,C   1)                  1.1098         0.334723   
      3. B(H   3,C   1)                  1.5083         0.016450   
      4. B(H   3,C   0)                  1.6032         0.055509   
      5. B(H   4,C   1)                  1.1039         0.352341   
      6. B(O   5,H   3)                  1.3192         0.006368   
      7. B(O   5,C   1)                  2.2393         0.110974   
      8. B(O   5,C   0)                  1.2871         0.506629   
      9. B(H   6,C   0)                  1.1125         0.331298   
     10. A(C   1,C   0,H   6)          129.8069         0.197613   
     11. A(O   5,C   0,H   6)          118.4840         0.201021   
     12. A(C   1,C   0,O   5)          111.6726         0.094298   
     13. A(H   2,C   1,H   4)          113.3459         0.173676   
     14. A(C   0,C   1,H   4)          123.2133         0.252624   
     15. A(C   0,C   1,H   2)          112.2029         0.241829   
     16. A(C   0,O   5,H   3)           75.9108         0.040382   
     17. D(H   2,C   1,C   0,O   5)     64.0753         0.019698   
     18. D(H   4,C   1,C   0,O   5)   -154.7725         0.025264   
     19. D(H   4,C   1,C   0,H   6)     22.9564         0.016053   
     20. D(H   2,C   1,C   0,H   6)   -118.1958         0.018353   
     21. D(H   3,O   5,C   0,H   6)   -167.6709         0.030070   
     22. D(H   3,O   5,C   0,C   1)     10.3443         0.029962   
    -----------------------------------------------------------------

Number of atoms                         .... 7
Number of degrees of freedom            .... 22


         *************************************************************
         *                GEOMETRY OPTIMIZATION CYCLE   1            *
         *************************************************************


           ************************************************************
           *        Program running with 8 parallel MPI-processes     *
           *              working on a common directory               *
           ************************************************************
------------------------------------------------------------------------------
                             ORCA STARTUP CALCULATIONS
                           -- RI-GTO INTEGRALS CHOSEN --
------------------------------------------------------------------------------
------------------------------------------------------------------------------
                   ___                                                        
                  /   \      - P O W E R E D   B Y -                         
                 /     \                                                     
                 |  |  |   _    _      __       _____    __    __             
                 |  |  |  | |  | |    /  \     |  _  \  |  |  /  |          
                  \  \/   | |  | |   /    \    | | | |  |  | /  /          
                 / \  \   | |__| |  /  /\  \   | |_| |  |  |/  /          
                |  |  |   |  __  | /  /__\  \  |    /   |      \           
                |  |  |   | |  | | |   __   |  |    \   |  |\   \          
                \     /   | |  | | |  |  |  |  | |\  \  |  | \   \       
                 \___/    |_|  |_| |__|  |__|  |_| \__\ |__|  \__/        
                                                                              
                      - O R C A' S   B I G   F R I E N D -                    
                                      &                                       
                       - I N T E G R A L  F E E D E R -                       
                                                                              
 v1 FN, 2020, v2 2021, v3 2022-2024                                           
------------------------------------------------------------------------------


----------------------
SHARK INTEGRAL PACKAGE
----------------------

Number of atoms                             ...      7
Number of basis functions                   ...     62
Number of shells                            ...     30
Maximum angular momentum                    ...      2
Integral batch strategy                     ... SHARK/LIBINT Hybrid
RI-J (if used) integral strategy            ... SPLIT-RIJ (Revised 2003 algorithm where possible)
Printlevel                                  ...      1
Contraction scheme used                     ... SEGMENTED contraction
Prescreening option                         ... SCHWARTZ
   Thresh                                   ... 2.500e-11
   Tcut                                     ... 2.500e-12
   Tpresel                                  ... 2.500e-12 
Coulomb Range Separation                    ... NOT USED
Exchange Range Separation                   ... NOT USED
Multipole approximations                    ... NOT USED
Finite Nucleus Model                        ... NOT USED
CABS basis                                  ... NOT available
Auxiliary Coulomb fitting basis             ... AVAILABLE
   # of basis functions in Aux-J            ...    191
   # of shells in Aux-J                     ...     65
   Maximum angular momentum in Aux-J        ...      4
Auxiliary J/K fitting basis                 ... NOT available
Auxiliary Correlation fitting basis         ... NOT available
Auxiliary 'external' fitting basis          ... NOT available

Checking pre-screening integrals            ... done (  0.0 sec) Dimension = 30
   => SHARK Basis and OBASIS are compatible. Storing Pre-screening
Shell pair information
Shell pair cut-off parameter TPreSel        ...   2.5e-12
Total number of shell pairs                 ...       465
Shell pairs after pre-screening             ...       464
Total number of primitive shell pairs       ...      1647
Primitive shell pairs kept                  ...      1431
          la=0 lb=0:    152 shell pairs
          la=1 lb=0:    170 shell pairs
          la=1 lb=1:     55 shell pairs
          la=2 lb=0:     51 shell pairs
          la=2 lb=1:     30 shell pairs
          la=2 lb=2:      6 shell pairs

Checking whether 4 symmetric matrices of dimension 62 fit in memory
:Max Core in MB      =    750.00
 MB in use           =      3.85
 MB left             =    746.15
 MB needed           =      0.06
 Data fit in memory  = YES
Calculating RI/J V-Matrix + Cholesky decomp.... done (  0.0 sec)
Calculating Nuclear repulsion               ... done (  0.0 sec) ENN=     71.059521629800 Eh

Diagonalization of the overlap matrix:
Smallest eigenvalue                        ... 4.043e-03
Time for diagonalization                   ...    0.001 sec
Threshold for overlap eigenvalues          ... 1.000e-07
Number of eigenvalues below threshold      ... 0
Time for construction of square roots      ...    0.003 sec
Total time needed                          ...    0.006 sec

-------------------
DFT GRID GENERATION
-------------------

General Integration Accuracy     IntAcc      ... 4.388
Radial Grid Type                 RadialGrid  ... OptM3 with GC (2021)
Angular Grid (max. ang.)         AngularGrid ... 4 (Lebedev-302)
Angular grid pruning method      GridPruning ... 4 (adaptive)
Weight generation scheme         WeightScheme... mBecke (2022)
Basis function cutoff            BFCut       ... 1.0000e-11
Integration weight cutoff        WCut        ... 1.0000e-14
Partially contracted basis set               ... off
Rotationally invariant grid construction     ... off
Angular grids for H and He will be reduced by one unit

Total number of grid points                  ...    31358
Total number of batches                      ...      494
Average number of points per batch           ...       63
Average number of grid points per atom       ...     4480
Grids setup in   0.4 sec
Initializing property integral containers    ... done (  0.0 sec)

SHARK setup successfully completed in   0.5 seconds

Maximum memory used throughout the entire STARTUP-calculation: 10.0 MB


           ************************************************************
           *        Program running with 8 parallel MPI-processes     *
           *              working on a common directory               *
           ************************************************************
-------------------------------------------------------------------------------
                                 ORCA GUESS
                   Start orbitals & Density for SCF / CASSCF
-------------------------------------------------------------------------------

------------
SCF SETTINGS
------------
Hamiltonian:
 Density Functional     Method          .... DFT(GTOs)
 Exchange Functional    Exchange        .... PBE
   PBE kappa parameter   XKappa         ....  0.804000
   PBE mue parameter    XMuePBE         ....  0.219520
 Correlation Functional Correlation     .... PBE
   PBE beta parameter  CBetaPBE         ....  0.066725
 LDA part of GGA corr.  LDAOpt          .... PW91-LDA
 Gradients option       PostSCFGGA      .... off
   NL short-range parameter             ....  6.400000
 RI-approximation to the Coulomb term is turned on
   Number of AuxJ basis functions       .... 191


General Settings:
 Integral files         IntName         .... input
 Hartree-Fock type      HFTyp           .... RHF
 Total Charge           Charge          ....    0
 Multiplicity           Mult            ....    1
 Number of Electrons    NEL             ....   24
 Basis Dimension        Dim             ....   62
 Nuclear Repulsion      ENuc            ....     71.0595216298 Eh

Convergence Acceleration:
 AO-DIIS                CNVDIIS         .... on
   Start iteration      DIISMaxIt       ....    12
   Startup error        DIISStart       ....  0.200000
   # of expansion vecs  DIISMaxEq       ....     5
   Bias factor          DIISBfac        ....   1.050
   Max. coefficient     DIISMaxC        ....  10.000
 MO-DIIS                CNVKDIIS        .... off
 Trust-Rad. Augm. Hess. CNVTRAH         .... auto
   Auto Start mean grad. ratio tolernc. ....  1.125000
   Auto Start start iteration           ....     1
   Auto Start num. interpolation iter.  ....    10
   Max. Number of Micro iterations      ....    24
   Max. Number of Macro iterations      .... Maxiter - #DIIS iter
   Number of Davidson start vectors     ....     2
   Converg. threshold    (grad. norm)   ....   1.000e-05
   Grad. Scal. Fac. for Micro threshold ....   0.100
   Minimum threshold for Micro iter.    ....   1.000e-02
   NR start threshold (gradient norm)   ....   1.000e-04
   Initial trust radius                 ....   0.400
   Minimum AH scaling param. (alpha)    ....   1.000
   Maximum AH scaling param. (alpha)    .... 1000.000
   Quad. conv. algorithm                .... NR
   White noise on init. David. guess    .... on
   Maximum white noise                  ....   0.010
   Pseudo random numbers                .... off
   Inactive MOs                         .... canonical
   Orbital update algorithm             .... Taylor
   Preconditioner                       .... Diag
   Full preconditioner red. dimension   ....   250
 SOSCF                 CNVSOSCF           .... on
   Start iteration     SOSCFMaxIt         ....   150
   Startup grad/error  SOSCFStart         ....  0.003300
   Hessian update      SOSCFHessUp        .... L-BFGS
   Autom. constraints  SOSCFAutoConstrain .... off
 Level Shifting         CNVShift        .... on
   Level shift para.    LevelShift      ....    0.2500
   Turn off err/grad.   ShiftErr        ....    0.0010
 Zerner damping         CNVZerner       .... off
 Static damping         CNVDamp         .... on
   Fraction old density DampFac         ....    0.7000
   Max. Damping (<1)    DampMax         ....    0.9800
   Min. Damping (>=0)   DampMin         ....    0.0000
   Turn off err/grad.   DampErr         ....    0.1000

SCF Procedure:
 Maximum # iterations   MaxIter         ....   125
 SCF integral mode      SCFMode         .... Direct
   Integral package                     .... SHARK and LIBINT hybrid scheme
 Reset frequency        DirectResetFreq ....    20
 Integral Threshold     Thresh          ....  2.500e-11 Eh
 Primitive CutOff       TCut            ....  2.500e-12 Eh

Convergence Tolerance:
 Convergence Check Mode ConvCheckMode   .... Total+1el-Energy
 Convergence forced     ConvForced      .... 0
 Energy Change          TolE            ....  1.000e-08 Eh
 1-El. energy change                    ....  1.000e-05 Eh
 Orbital Gradient       TolG            ....  1.000e-05
 Orbital Rotation angle TolX            ....  1.000e-05
 DIIS Error             TolErr          ....  5.000e-07

---------------------
INITIAL GUESS: MOREAD
---------------------
Guess MOs are being read from file: input.gbw
Input Geometry matches current geometry (good)
Input basis set matches current basis set (good)
Occupation numbers will be reassigned to an Aufbau configuration
MOs were renormalized
MOs were reorthogonalized (Cholesky)
                      ------------------
                      INITIAL GUESS DONE (   0.0 sec)
                      ------------------
             **** ENERGY FILE WAS UPDATED (input.en.tmp) ****
Finished Guess after   0.1 sec
Maximum memory used throughout the entire GUESS-calculation: 6.1 MB


           ************************************************************
           *        Program running with 8 parallel MPI-processes     *
           *              working on a common directory               *
           ************************************************************

-------------------------------------------------------------------------------------------
                                      ORCA LEAN-SCF
                              memory conserving SCF solver
-------------------------------------------------------------------------------------------

----------------------------------------D-I-I-S--------------------------------------------
Iteration    Energy (Eh)           Delta-E    RMSDP     MaxDP     DIISErr   Damp  Time(sec)
-------------------------------------------------------------------------------------------
               ***  Starting incremental Fock matrix formation  ***
                              *** Initializing SOSCF ***
---------------------------------------S-O-S-C-F--------------------------------------
Iteration    Energy (Eh)           Delta-E    RMSDP     MaxDP     MaxGrad    Time(sec)
--------------------------------------------------------------------------------------
    1    -153.4311058789207038     0.00e+00  4.81e-07  1.56e-06  2.45e-07     0.3
               *** Restarting incremental Fock matrix formation ***
    2    -153.4311058789256492    -4.95e-12  6.89e-07  3.55e-06  4.12e-07     0.2
                  *** Gradient check signals convergence ***

               *****************************************************
               *                     SUCCESS                       *
               *           SCF CONVERGED AFTER   2 CYCLES          *
               *****************************************************

             **** ENERGY FILE WAS UPDATED (input.en.tmp) ****

----------------
TOTAL SCF ENERGY
----------------

Total Energy       :       -153.43110587881972 Eh           -4175.07265 eV

Components:
Nuclear Repulsion  :         71.05952162979997 Eh            1933.62789 eV
Electronic Energy  :       -224.49062750861970 Eh           -6108.70053 eV
One Electron Energy:       -348.48514351975172 Eh           -9482.76285 eV
Two Electron Energy:        123.99451601113202 Eh            3374.06231 eV

Virial components:
Potential Energy   :       -305.49266614809926 Eh           -8312.87806 eV
Kinetic Energy     :        152.06156026927957 Eh            4137.80542 eV
Virial Ratio       :          2.00900652082693

DFT components:
N(Alpha)           :       11.999997010872 electrons
N(Beta)            :       11.999997010872 electrons
N(Total)           :       23.999994021744 electrons
E(X)               :      -19.814677312775 Eh       
E(C)               :       -0.789723305255 Eh       
E(XC)              :      -20.604400618029 Eh       

---------------
SCF CONVERGENCE
---------------

  Last Energy change         ...    4.9454e-12  Tolerance :   1.0000e-08
  Last MAX-Density change    ...    3.5530e-06  Tolerance :   1.0000e-07
  Last RMS-Density change    ...    6.8860e-07  Tolerance :   5.0000e-09
  Last DIIS Error            ...    1.3154e-06  Tolerance :   5.0000e-07
  Last Orbital Gradient      ...    4.1218e-07  Tolerance :   1.0000e-05
  Last Orbital Rotation      ...    2.7855e-06  Tolerance :   1.0000e-05


----------------
ORBITAL ENERGIES
----------------

  NO   OCC          E(Eh)            E(eV) 
   0   2.0000     -18.782558      -511.0994 
   1   2.0000      -9.992913      -271.9210 
   2   2.0000      -9.889566      -269.1088 
   3   2.0000      -0.966902       -26.3107 
   4   2.0000      -0.660405       -17.9705 
   5   2.0000      -0.536572       -14.6009 
   6   2.0000      -0.451043       -12.2735 
   7   2.0000      -0.402821       -10.9613 
   8   2.0000      -0.380996       -10.3674 
   9   2.0000      -0.338922        -9.2225 
  10   2.0000      -0.284765        -7.7488 
  11   2.0000      -0.198940        -5.4134 
  12   0.0000      -0.086169        -2.3448 
  13   0.0000       0.035547         0.9673 
  14   0.0000       0.061871         1.6836 
  15   0.0000       0.081058         2.2057 
  16   0.0000       0.115632         3.1465 
  17   0.0000       0.189688         5.1617 
  18   0.0000       0.253037         6.8855 
  19   0.0000       0.336463         9.1556 
  20   0.0000       0.374801        10.1988 
  21   0.0000       0.445877        12.1329 
  22   0.0000       0.470225        12.7955 
*Only the first 10 virtual orbitals were printed.
-------
TIMINGS
-------

Total SCF time: 0 days 0 hours 0 min 0 sec 

Total time                  ....       0.901 sec
Sum of individual times     ....       0.656 sec  ( 72.7%)

SCF preparation             ....       0.136 sec  ( 15.1%)
Fock matrix formation       ....       0.458 sec  ( 50.9%)
  Startup                   ....       0.010 sec  (  2.1% of F)
  Split-RI-J                ....       0.049 sec  ( 10.8% of F)
  XC integration            ....       0.538 sec  (117.3% of F)
    XC Preparation          ....       0.000 sec  (  0.0% of XC)
    Basis function eval.    ....       0.065 sec  ( 12.1% of XC)
    Density eval.           ....       0.050 sec  (  9.3% of XC)
    XC-Functional eval.     ....       0.025 sec  (  4.6% of XC)
    XC-Potential eval.      ....       0.022 sec  (  4.0% of XC)
Diagonalization             ....       0.000 sec  (  0.0%)
Density matrix formation    ....       0.012 sec  (  1.3%)
Total Energy calculation    ....       0.002 sec  (  0.3%)
Population analysis         ....       0.000 sec  (  0.0%)
Orbital Transformation      ....       0.006 sec  (  0.7%)
Orbital Orthonormalization  ....       0.000 sec  (  0.0%)
DIIS solution               ....       0.017 sec  (  1.9%)
SOSCF solution              ....       0.023 sec  (  2.6%)
Finished LeanSCF after   0.9 sec

Maximum memory used throughout the entire LEANSCF-calculation: 5.0 MB


-------------------------------------------------------------------------------
                          DFT DISPERSION CORRECTION                            
                                                                               
                              DFTD3 V3.1  Rev 1                                
                          USING Becke-Johnson damping                          
-------------------------------------------------------------------------------
The PBE functional is recognized
Active option DFTDOPT                   ...         4   

molecular C6(AA) [au] = 415.982701 


            DFT-D V3
 parameters
 s6 scaling factor         :     1.0000 
 a1 scaling factor         :     0.4289 
 s8 scaling factor         :     0.7875 
 a2 scaling factor         :     4.4407 
 ad hoc parameters k1-k3   :    16.0000     1.3333    -4.0000 

 Edisp/kcal,au: -2.138218379012  -0.003407467519 
 E6   /kcal   :  -1.543797115 
 E8   /kcal   :  -0.594421264 
 % E8         :  27.799838884 

-------------------------   ----------------
Dispersion correction           -0.003407468
-------------------------   ----------------


-------------------------   --------------------
FINAL SINGLE POINT ENERGY      -153.434513346339
-------------------------   --------------------



           ************************************************************
           *        Program running with 8 parallel MPI-processes     *
           *              working on a common directory               *
           ************************************************************
------------------------------------------------------------------------------
                         ORCA SCF GRADIENT CALCULATION
------------------------------------------------------------------------------

Nuc. rep. gradient        (SHARK) ... done (  0.0 sec)
HCore & Overlap gradient  (SHARK) ... done (  0.0 sec)
Split-RIJ-J gradient      (SHARK) ... done (  0.2 sec)
XC gradient                       ... done (  0.5 sec)
Dispersion correction             ... done (  0.1 sec)

-------------------
DISPERSION GRADIENT
-------------------

   1   C   :    0.000137391    0.000086375    0.000053926
   2   C   :    0.000100538    0.000568516    0.000256029
   3   H   :    0.000033656   -0.000031458   -0.000007451
   4   H   :   -0.000810579   -0.000360735   -0.000182775
   5   H   :    0.000038082   -0.000050001   -0.000020287
   6   O   :    0.000571816   -0.000227058   -0.000081708
   7   H   :   -0.000070904    0.000014361   -0.000017734

Difference to translation invariance:
           :   -0.0000000000    0.0000000000   -0.0000000000

Difference to rotation invariance:
           :   -0.0000000000   -0.0000000000    0.0000000000

Norm of the Dispersion gradient    ...    0.0012829583
RMS gradient                       ...    0.0002799645
MAX gradient                       ...    0.0008105791

------------------
CARTESIAN GRADIENT
------------------

   1   C   :    0.000703067   -0.000312140   -0.000029194
   2   C   :   -0.000763409   -0.001357849   -0.001202720
   3   H   :    0.000514782   -0.000260671    0.000498056
   4   H   :   -0.000386014    0.001617807    0.000899590
   5   H   :    0.000178000   -0.000311909   -0.000132497
   6   O   :   -0.000248145    0.000012877   -0.000375680
   7   H   :    0.000001720    0.000611886    0.000342444

Difference to translation invariance:
           :   -0.0000000000    0.0000000000    0.0000000000

Difference to rotation invariance:
           :   -0.0000126932    0.0000345415    0.0000300409

Norm of the Cartesian gradient     ...    0.0030762522
RMS gradient                       ...    0.0006712933
MAX gradient                       ...    0.0016178069

-------
TIMINGS
-------

Total SCF gradient time     ....        0.760 sec

Densities                   ....       0.004 sec  (  0.6%)
One electron gradient       ....       0.036 sec  (  4.7%)
RI-J Coulomb gradient       ....       0.155 sec  ( 20.4%)
XC gradient                 ....       0.471 sec  ( 62.0%)

Maximum memory used throughout the entire SCFGRAD-calculation: 25.9 MB
------------------------------------------------------------------------------
                         ORCA GEOMETRY RELAXATION STEP
------------------------------------------------------------------------------

Reading the OPT-File                    .... done
Getting information on internals        .... done
Copying old internal coords+grads       .... done
Making the new internal coordinates     .... (2022 redundants) done
Validating the new internal coordinates .... (2022 redundants) done
Calculating the B-matrix                .... done
Calculating the G,G- and P matrices     .... done
Transforming gradient to internals      .... done
Projecting the internal gradient        .... done
Number of atoms                         ....   7
Number of internal coordinates          ....  22
Current Energy                          ....  -153.434513346 Eh
Current gradient norm                   ....     0.003076252 Eh/bohr
Maximum allowed component of the step   ....  0.300
Current trust radius                    ....  0.100
Evaluating the initial hessian          ....  (read) 
(Reading Exact Hessian)...  
InHessName: input.appr.hess	The file <input.appr.hess> is opened as a .hess file
done
done
Projecting the Hessian                  .... done
Diagonalizing the Hessian               .... done
Dimension of the hessian                ....  22
Lowest eigenvalues of the Hessian:
 -0.084050767  0.014859109  0.028921643  0.040678166  0.052627252
Hessian has   1 negative eigenvalues
Taking P-RFO step
Searching for lambda that maximizes along the lowest mode
TS mode is mode number   0 with eigenvalue  -0.08405077 and components:
   1.    0.11685514
   2.    0.01797134
   3.   -0.55218569
   4.    0.06135748
   5.    0.01578810
   6.    0.67294668
   7.   -0.00583626
   8.   -0.13558182
   9.    0.01585775
  10.   -0.02272226
  11.    0.01830571
  12.    0.00349552
  13.   -0.04547602
  14.   -0.00806981
  15.   -0.03760975
  16.   -0.14382524
  17.    0.27211132
  18.    0.11605035
  19.    0.08798978
  20.    0.24405075
  21.    0.12531221
  22.    0.09979126

Lambda that maximizes along the TS mode:       0.00002576
Searching for lambda that minimizes along all other modes
In cycle   1: lambdaN =  -0.00004363   step =   0.00004363
In cycle   2: lambdaN =  -0.00004363   step =   0.00000000
Lambda that minimizes along all other modes:  -0.00004363
The final length of the internal step   ....       0.0466
Converting the step to Cartesian space:
 Initial RMS(Int)=    0.0099405878
Transforming coordinates:
 Iter   0:  RMS(Cart)=    0.0099261392 RMS(Int)=    0.0099280625
done
Storing new coordinates                 .... done

                                .--------------------.
          ----------------------|Geometry convergence|-------------------------
          Item                value                   Tolerance       Converged
          ---------------------------------------------------------------------
          RMS gradient        0.0005224468            0.0001000000      NO
          MAX gradient        0.0016097823            0.0003000000      NO
          RMS step            0.0099405878            0.0020000000      NO
          MAX step            0.0206489297            0.0040000000      NO
          -------------------------------------------------------------------------
          ........................................................
          Max(Bonds)      0.0080      Max(Angles)    0.28
          Max(Dihed)        1.18      Max(Improp)    0.00
          ---------------------------------------------------------------------

The optimization has not yet converged - more geometry cycles are needed


    ---------------------------------------------------------------------------
                         Redundant Internal Coordinates
                            (Angstroem and degrees)

        Definition                    Value    dE/dq     Step     New-Value  comp.(TS mode)
    ----------------------------------------------------------------------------
     1. B(C   1,C   0)                1.4178  0.000001 -0.0019    1.4159   
     2. B(H   2,C   1)                1.1098  0.000685 -0.0013    1.1085   
     3. B(H   3,C   1)                1.5083  0.001610 -0.0076    1.5007          0.55
     4. B(H   3,C   0)                1.6032 -0.000116 -0.0066    1.5966   
     5. B(H   4,C   1)                1.1039  0.000333 -0.0006    1.1033   
     6. B(O   5,H   3)                1.3192 -0.000608 -0.0080    1.3113          0.67
     7. B(O   5,C   1)                2.2393  0.000494 -0.0045    2.2349   
     8. B(O   5,C   0)                1.2871 -0.000373  0.0010    1.2881   
     9. B(H   6,C   0)                1.1125 -0.000233  0.0002    1.1127   
    10. A(C   1,C   0,H   6)          129.81  0.000411    0.06    129.86   
    11. A(O   5,C   0,H   6)          118.48 -0.000968    0.22    118.70   
    12. A(C   1,C   0,O   5)          111.67  0.000555   -0.28    111.39   
    13. A(H   2,C   1,H   4)          113.35 -0.000307    0.08    113.42   
    14. A(C   0,C   1,H   4)          123.21  0.000128   -0.05    123.17   
    15. A(C   0,C   1,H   2)          112.20  0.000395   -0.04    112.16   
    16. A(C   0,O   5,H   3)           75.91  0.000253   -0.12     75.79   
    17. D(H   2,C   1,C   0,O   5)     64.08 -0.000164   -0.99     63.08          0.27
    18. D(H   4,C   1,C   0,O   5)   -154.77  0.000057   -0.97   -155.74   
    19. D(H   4,C   1,C   0,H   6)     22.96 -0.000017   -1.16     21.79   
    20. D(H   2,C   1,C   0,H   6)   -118.20 -0.000238   -1.18   -119.38   
    21. D(H   3,O   5,C   0,H   6)   -167.67 -0.000283   -0.08   -167.75   
    22. D(H   3,O   5,C   0,C   1)     10.34 -0.000318   -0.25     10.10   
    ----------------------------------------------------------------------------

Geometry step timings:
Preparation and reading OPT file:      0.000 s ( 0.493 %)
Internal coordinates            :      0.000 s ( 0.581 %)
B/P matrices and projection     :      0.000 s ( 3.416 %)
Hessian update/contruction      :      0.005 s (86.952 %)
Making the step                 :      0.000 s ( 3.064 %)
Converting the step to Cartesian:      0.000 s ( 0.581 %)
Storing new data                :      0.000 s ( 0.528 %)
Checking convergence            :      0.000 s ( 0.687 %)
Final printing                  :      0.000 s ( 3.663 %)
Total time                      :      0.006 s

Time for energy+gradient        :      3.016 s
Time for complete geometry iter :      3.182 s

         *************************************************************
         *                GEOMETRY OPTIMIZATION CYCLE   2            *
         *************************************************************
---------------------------------
CARTESIAN COORDINATES (ANGSTROEM)
---------------------------------
  C     -0.662856    0.279856   -0.097692
  C      0.508968   -0.511460   -0.171497
  H      0.845980   -0.853839    0.827458
  H      0.741385    0.859090    0.394026
  H      0.689903   -1.248869   -0.971932
  O     -0.456325    1.364547    0.565655
  H     -1.667057    0.110674   -0.546018

----------------------------
CARTESIAN COORDINATES (A.U.)
----------------------------
  NO LB      ZA    FRAG     MASS         X           Y           Z
   0 C     6.0000    0    12.011   -1.252616    0.528851   -0.184612
   1 C     6.0000    0    12.011    0.961811   -0.966519   -0.324082
   2 H     1.0000    0     1.008    1.598671   -1.613521    1.563669
   3 H     1.0000    0     1.008    1.401015    1.623444    0.744601
   4 H     1.0000    0     1.008    1.303727   -2.360020   -1.836685
   5 O     8.0000    0    15.999   -0.862329    2.578621    1.068933
   6 H     1.0000    0     1.008   -3.150281    0.209144   -1.031824

--------------------------------
INTERNAL COORDINATES (ANGSTROEM)
--------------------------------
 C      0   0   0     0.000000000000     0.00000000     0.00000000
 C      1   0   0     1.415909294305     0.00000000     0.00000000
 H      2   1   0     1.108472377803   112.16457874     0.00000000
 H      2   1   3     1.500746422348    66.30540439   287.58535087
 H      2   1   3     1.103270205715   123.16744193   141.17217405
 O      1   2   3     1.288114923776   111.39297120    63.08303786
 H      1   2   3     1.112671468345   129.86283608   240.62102923

---------------------------
INTERNAL COORDINATES (A.U.)
---------------------------
 C      0   0   0     0.000000000000     0.00000000     0.00000000
 C      1   0   0     2.675680796710     0.00000000     0.00000000
 H      2   1   0     2.094709221064   112.16457874     0.00000000
 H      2   1   3     2.835999734700    66.30540439   287.58535087
 H      2   1   3     2.084878540517   123.16744193   141.17217405
 O      1   2   3     2.434184434954   111.39297120    63.08303786
 H      1   2   3     2.102644352200   129.86283608   240.62102923



           ************************************************************
           *        Program running with 8 parallel MPI-processes     *
           *              working on a common directory               *
           ************************************************************
------------------------------------------------------------------------------
                   ___                                                        
                  /   \      - P O W E R E D   B Y -                         
                 /     \                                                     
                 |  |  |   _    _      __       _____    __    __             
                 |  |  |  | |  | |    /  \     |  _  \  |  |  /  |          
                  \  \/   | |  | |   /    \    | | | |  |  | /  /          
                 / \  \   | |__| |  /  /\  \   | |_| |  |  |/  /          
                |  |  |   |  __  | /  /__\  \  |    /   |      \           
                |  |  |   | |  | | |   __   |  |    \   |  |\   \          
                \     /   | |  | | |  |  |  |  | |\  \  |  | \   \       
                 \___/    |_|  |_| |__|  |__|  |_| \__\ |__|  \__/        
                                                                              
                      - O R C A' S   B I G   F R I E N D -                    
                                      &                                       
                       - I N T E G R A L  F E E D E R -                       
                                                                              
 v1 FN, 2020, v2 2021, v3 2022-2024                                           
------------------------------------------------------------------------------


----------------------
SHARK INTEGRAL PACKAGE
----------------------

Number of atoms                             ...      7
Number of basis functions                   ...     62
Number of shells                            ...     30
Maximum angular momentum                    ...      2
Integral batch strategy                     ... SHARK/LIBINT Hybrid
RI-J (if used) integral strategy            ... SPLIT-RIJ (Revised 2003 algorithm where possible)
Printlevel                                  ...      1
Contraction scheme used                     ... SEGMENTED contraction
Prescreening option                         ... SCHWARTZ
   Thresh                                   ... 2.500e-11
   Tcut                                     ... 2.500e-12
   Tpresel                                  ... 2.500e-12 
Coulomb Range Separation                    ... NOT USED
Exchange Range Separation                   ... NOT USED
Multipole approximations                    ... NOT USED
Finite Nucleus Model                        ... NOT USED
CABS basis                                  ... NOT available
Auxiliary Coulomb fitting basis             ... AVAILABLE
   # of basis functions in Aux-J            ...    191
   # of shells in Aux-J                     ...     65
   Maximum angular momentum in Aux-J        ...      4
Auxiliary J/K fitting basis                 ... NOT available
Auxiliary Correlation fitting basis         ... NOT available
Auxiliary 'external' fitting basis          ... NOT available

Checking pre-screening integrals            ... done (  0.0 sec) Dimension = 30
   => SHARK Basis and OBASIS are compatible. Storing Pre-screening
Shell pair information
Shell pair cut-off parameter TPreSel        ...   2.5e-12
Total number of shell pairs                 ...       465
Shell pairs after pre-screening             ...       464
Total number of primitive shell pairs       ...      1647
Primitive shell pairs kept                  ...      1432
          la=0 lb=0:    152 shell pairs
          la=1 lb=0:    170 shell pairs
          la=1 lb=1:     55 shell pairs
          la=2 lb=0:     51 shell pairs
          la=2 lb=1:     30 shell pairs
          la=2 lb=2:      6 shell pairs

Checking whether 4 symmetric matrices of dimension 62 fit in memory
:Max Core in MB      =    750.00
 MB in use           =      3.85
 MB left             =    746.15
 MB needed           =      0.06
 Data fit in memory  = YES
Calculating RI/J V-Matrix + Cholesky decomp.... done (  0.0 sec)
Calculating Nuclear repulsion               ... done (  0.0 sec) ENN=     71.142908816797 Eh

Diagonalization of the overlap matrix:
Smallest eigenvalue                        ... 4.010e-03
Time for diagonalization                   ...    0.001 sec
Threshold for overlap eigenvalues          ... 1.000e-07
Number of eigenvalues below threshold      ... 0
Time for construction of square roots      ...    0.001 sec
Total time needed                          ...    0.004 sec

-------------------
DFT GRID GENERATION
-------------------

General Integration Accuracy     IntAcc      ... 4.388
Radial Grid Type                 RadialGrid  ... OptM3 with GC (2021)
Angular Grid (max. ang.)         AngularGrid ... 4 (Lebedev-302)
Angular grid pruning method      GridPruning ... 4 (adaptive)
Weight generation scheme         WeightScheme... mBecke (2022)
Basis function cutoff            BFCut       ... 1.0000e-11
Integration weight cutoff        WCut        ... 1.0000e-14
Partially contracted basis set               ... off
Rotationally invariant grid construction     ... off
Angular grids for H and He will be reduced by one unit

Total number of grid points                  ...    31357
Total number of batches                      ...      494
Average number of points per batch           ...       63
Average number of grid points per atom       ...     4480
Grids setup in   0.3 sec
Initializing property integral containers    ... done (  0.1 sec)

SHARK setup successfully completed in   0.5 seconds

Maximum memory used throughout the entire STARTUP-calculation: 10.0 MB


           ************************************************************
           *        Program running with 8 parallel MPI-processes     *
           *              working on a common directory               *
           ************************************************************
Occupation numbers will be reassigned to an Aufbau configuration
             **** ENERGY FILE WAS UPDATED (input.en.tmp) ****
Finished Guess after   0.2 sec
Maximum memory used throughout the entire GUESS-calculation: 6.1 MB


           ************************************************************
           *        Program running with 8 parallel MPI-processes     *
           *              working on a common directory               *
           ************************************************************
----------------------------------------D-I-I-S--------------------------------------------
Iteration    Energy (Eh)           Delta-E    RMSDP     MaxDP     DIISErr   Damp  Time(sec)
-------------------------------------------------------------------------------------------
               ***  Starting incremental Fock matrix formation  ***
                              *** Initializing SOSCF ***
---------------------------------------S-O-S-C-F--------------------------------------
Iteration    Energy (Eh)           Delta-E    RMSDP     MaxDP     MaxGrad    Time(sec)
--------------------------------------------------------------------------------------
    1    -153.4310336111782362     0.00e+00  1.02e-03  3.19e-03  7.49e-04     0.3
               *** Restarting incremental Fock matrix formation ***
    2    -153.4311056031464773    -7.20e-05  9.12e-04  2.84e-03  7.21e-04     0.2
    3    -153.4311142239348555    -8.62e-06  4.28e-04  1.53e-03  4.88e-04     0.3
    4    -153.4311111758728998     3.05e-06  3.89e-04  1.53e-03  8.50e-04     4.4
    5    -153.4311167931625732    -5.62e-06  2.51e-04  8.78e-04  2.82e-04     0.2
    6    -153.4311158538251902     9.39e-07  1.64e-04  7.04e-04  3.64e-04     0.2
    7    -153.4311179742950912    -2.12e-06  8.57e-05  3.80e-04  5.39e-05     1.6
    8    -153.4311179810869703    -6.79e-09  4.38e-05  1.97e-04  4.94e-05     0.2
                 **** Energy Check signals convergence ****

               *****************************************************
               *                     SUCCESS                       *
               *           SCF CONVERGED AFTER   8 CYCLES          *
               *****************************************************

             **** ENERGY FILE WAS UPDATED (input.en.tmp) ****

----------------
TOTAL SCF ENERGY
----------------

Total Energy       :       -153.43111808826757 Eh           -4175.07298 eV

Components:
Nuclear Repulsion  :         71.14290881679669 Eh            1935.89697 eV
Electronic Energy  :       -224.57402690506427 Eh           -6110.96995 eV
One Electron Energy:       -348.64906513189777 Eh           -9487.22338 eV
Two Electron Energy:        124.07503822683351 Eh            3376.25344 eV

Virial components:
Potential Energy   :       -305.50385198087025 Eh           -8313.18245 eV
Kinetic Energy     :        152.07273389260268 Eh            4138.10947 eV
Virial Ratio       :          2.00893246383421

DFT components:
N(Alpha)           :       11.999997213388 electrons
N(Beta)            :       11.999997213388 electrons
N(Total)           :       23.999994426777 electrons
E(X)               :      -19.818026032246 Eh       
E(C)               :       -0.790072631449 Eh       
E(XC)              :      -20.608098663695 Eh       

---------------
SCF CONVERGENCE
---------------

  Last Energy change         ...    6.7919e-09  Tolerance :   1.0000e-08
  Last MAX-Density change    ...    1.9685e-04  Tolerance :   1.0000e-07
  Last RMS-Density change    ...    4.3769e-05  Tolerance :   5.0000e-09
  Last DIIS Error            ...    2.8260e-03  Tolerance :   5.0000e-07
  Last Orbital Gradient      ...    4.9422e-05  Tolerance :   1.0000e-05
  Last Orbital Rotation      ...    6.9626e-05  Tolerance :   1.0000e-05


Total SCF time: 0 days 0 hours 0 min 8 sec 
Finished LeanSCF after   8.3 sec

Maximum memory used throughout the entire LEANSCF-calculation: 5.1 MB


-------------------------------------------------------------------------------
                          DFT DISPERSION CORRECTION                            
                                                                               
                              DFTD3 V3.1  Rev 1                                
                          USING Becke-Johnson damping                          
-------------------------------------------------------------------------------
-------------------------   ----------------
Dispersion correction           -0.003388635
-------------------------   ----------------


-------------------------   --------------------
FINAL SINGLE POINT ENERGY      -153.434506722852
-------------------------   --------------------



           ************************************************************
           *        Program running with 8 parallel MPI-processes     *
           *              working on a common directory               *
           ************************************************************
------------------------------------------------------------------------------
                         ORCA SCF GRADIENT CALCULATION
------------------------------------------------------------------------------

Nuc. rep. gradient        (SHARK) ... done (  0.0 sec)
HCore & Overlap gradient  (SHARK) ... done (  0.0 sec)
Split-RIJ-J gradient      (SHARK) ... done (  0.1 sec)
XC gradient                       ... done (  0.3 sec)
Dispersion correction             ... done (  0.1 sec)

-------------------
DISPERSION GRADIENT
-------------------

   1   C   :    0.000118719    0.000077816    0.000048330
   2   C   :    0.000093503    0.000562611    0.000259533
   3   H   :    0.000032691   -0.000030087   -0.000009178
   4   H   :   -0.000751683   -0.000352608   -0.000182498
   5   H   :    0.000037536   -0.000048279   -0.000018787
   6   O   :    0.000539001   -0.000223948   -0.000079841
   7   H   :   -0.000069766    0.000014496   -0.000017558

Difference to translation invariance:
           :    0.0000000000    0.0000000000   -0.0000000000

Difference to rotation invariance:
           :   -0.0000000000    0.0000000000    0.0000000000

Norm of the Dispersion gradient    ...    0.0012232614
RMS gradient                       ...    0.0002669375
MAX gradient                       ...    0.0007516830

------------------
CARTESIAN GRADIENT
------------------

   1   C   :    0.000588957    0.000448026    0.000623126
   2   C   :    0.000644236    0.001169634    0.000173863
   3   H   :    0.000167383    0.000168275   -0.000219054
   4   H   :   -0.000278007   -0.001517999    0.000169397
   5   H   :   -0.000238450   -0.000105206    0.000101959
   6   O   :   -0.000667182   -0.000558176   -0.001064243
   7   H   :   -0.000216938    0.000395447    0.000214953

Difference to translation invariance:
           :   -0.0000000000   -0.0000000000   -0.0000000000

Difference to rotation invariance:
           :   -0.0000095977    0.0000385301    0.0000400747

Norm of the Cartesian gradient     ...    0.0027351583
RMS gradient                       ...    0.0005968605
MAX gradient                       ...    0.0015179992

-------
TIMINGS
-------

Total SCF gradient time     ....        0.530 sec

Densities                   ....       0.000 sec  (  0.0%)
One electron gradient       ....       0.017 sec  (  3.2%)
RI-J Coulomb gradient       ....       0.141 sec  ( 26.6%)
XC gradient                 ....       0.282 sec  ( 53.2%)

Maximum memory used throughout the entire SCFGRAD-calculation: 25.9 MB
------------------------------------------------------------------------------
                         ORCA GEOMETRY RELAXATION STEP
------------------------------------------------------------------------------

Reading the OPT-File                    .... done
Getting information on internals        .... done
Copying old internal coords+grads       .... done
Making the new internal coordinates     .... (2022 redundants) done
Validating the new internal coordinates .... (2022 redundants) done
Calculating the B-matrix                .... done
Calculating the G,G- and P matrices     .... done
Transforming gradient to internals      .... done
Projecting the internal gradient        .... done
Number of atoms                         ....   7
Number of internal coordinates          ....  22
Current Energy                          ....  -153.434506723 Eh
Current gradient norm                   ....     0.002735158 Eh/bohr
Maximum allowed component of the step   ....  0.300
Current trust radius                    ....  0.100
Updating the Hessian (Bofill)           .... done
Diagonalizing the Hessian               .... done
Dimension of the hessian                ....  22
Lowest eigenvalues of the Hessian:
 -0.095889363  0.016946922  0.028012450  0.050365402  0.053625901
Hessian has   1 negative eigenvalues
Taking P-RFO step
Searching for lambda that maximizes along the lowest mode
TS mode is mode number   0 with eigenvalue  -0.09588936 and components:
   1.   -0.12087158
   2.   -0.01561552
   3.    0.52939071
   4.   -0.07522202
   5.   -0.01429624
   6.   -0.66953780
   7.   -0.00730463
   8.    0.14272222
   9.   -0.01615623
  10.    0.01581502
  11.   -0.00059073
  12.   -0.01427393
  13.    0.04249338
  14.    0.01113540
  15.    0.02865348
  16.    0.13318111
  17.   -0.29940497
  18.   -0.15837889
  19.   -0.12760249
  20.   -0.26862856
  21.   -0.06647209
  22.   -0.03914732

Lambda that maximizes along the TS mode:       0.00000356
Searching for lambda that minimizes along all other modes
In cycle   1: lambdaN =  -0.00004411   step =   0.00004411
In cycle   2: lambdaN =  -0.00004411   step =   0.00000000
Lambda that minimizes along all other modes:  -0.00004411
The final length of the internal step   ....       0.0265
Converting the step to Cartesian space:
 Initial RMS(Int)=    0.0056495668
Transforming coordinates:
 Iter   0:  RMS(Cart)=    0.0076062846 RMS(Int)=    0.0056672417
done
Storing new coordinates                 .... done
The predicted energy change is          ....    -0.000020287
Previously predicted energy change      ....    -0.000008970
Actually observed energy change         ....     0.000006623
Ratio of predicted to observed change   ....     0.738366360
New trust radius                        ....     0.100000000

                                .--------------------.
          ----------------------|Geometry convergence|-------------------------
          Item                value                   Tolerance       Converged
          ---------------------------------------------------------------------
          Energy change       0.0000066235            0.0000050000      NO
          RMS gradient        0.0004881009            0.0001000000      NO
          MAX gradient        0.0010742008            0.0003000000      NO
          RMS step            0.0056495668            0.0020000000      NO
          MAX step            0.0184648115            0.0040000000      NO
          -------------------------------------------------------------------------
          ........................................................
          Max(Bonds)      0.0039      Max(Angles)    0.08
          Max(Dihed)        1.06      Max(Improp)    0.00
          ---------------------------------------------------------------------

The optimization has not yet converged - more geometry cycles are needed


    ---------------------------------------------------------------------------
                         Redundant Internal Coordinates
                            (Angstroem and degrees)

        Definition                    Value    dE/dq     Step     New-Value  comp.(TS mode)
    ----------------------------------------------------------------------------
     1. B(C   1,C   0)                1.4159  0.000344  0.0005    1.4164   
     2. B(H   2,C   1)                1.1085 -0.000197  0.0003    1.1088   
     3. B(H   3,C   1)                1.5007 -0.000896  0.0029    1.5036          0.53
     4. B(H   3,C   0)                1.5966 -0.000430  0.0024    1.5990   
     5. B(H   4,C   1)                1.1033 -0.000043  0.0002    1.1035   
     6. B(O   5,H   3)                1.3113  0.000345  0.0039    1.3152          0.67
     7. B(O   5,C   1)                2.2349 -0.000241  0.0004    2.2353   
     8. B(O   5,C   0)                1.2881 -0.001020 -0.0001    1.2880   
     9. B(H   6,C   0)                1.1127  0.000049  0.0000    1.1127   
    10. A(C   1,C   0,H   6)          129.86  0.000393   -0.08    129.78   
    11. A(O   5,C   0,H   6)          118.70 -0.000607    0.08    118.78   
    12. A(C   1,C   0,O   5)          111.39  0.000204    0.01    111.40   
    13. A(H   2,C   1,H   4)          113.42 -0.000004   -0.05    113.37   
    14. A(C   0,C   1,H   4)          123.17 -0.000301    0.01    123.18   
    15. A(C   0,C   1,H   2)          112.16  0.000286   -0.07    112.09   
    16. A(C   0,O   5,H   3)           75.79 -0.000014   -0.00     75.78   
    17. D(H   2,C   1,C   0,O   5)     63.08 -0.000066    0.05     63.13          0.30
[...]
   Hessian update      SOSCFHessUp        .... L-BFGS
   Autom. constraints  SOSCFAutoConstrain .... off
 Level Shifting         CNVShift        .... on
   Level shift para.    LevelShift      ....    0.2500
   Turn off err/grad.   ShiftErr        ....    0.0010
 Zerner damping         CNVZerner       .... off
 Static damping         CNVDamp         .... on
   Fraction old density DampFac         ....    0.7000
   Max. Damping (<1)    DampMax         ....    0.9800
   Min. Damping (>=0)   DampMin         ....    0.0000
   Turn off err/grad.   DampErr         ....    0.1000

SCF Procedure:
 Maximum # iterations   MaxIter         ....   125
 SCF integral mode      SCFMode         .... Direct
   Integral package                     .... SHARK and LIBINT hybrid scheme
 Reset frequency        DirectResetFreq ....    20
 Integral Threshold     Thresh          ....  2.500e-11 Eh
 Primitive CutOff       TCut            ....  2.500e-12 Eh

Convergence Tolerance:
 Convergence Check Mode ConvCheckMode   .... Total+1el-Energy
 Convergence forced     ConvForced      .... 0
 Energy Change          TolE            ....  1.000e-08 Eh
 1-El. energy change                    ....  1.000e-05 Eh
 Orbital Gradient       TolG            ....  1.000e-05
 Orbital Rotation angle TolX            ....  1.000e-05
 DIIS Error             TolErr          ....  5.000e-07

---------------------
INITIAL GUESS: MOREAD
---------------------
Guess MOs are being read from file: input.gbw
Input Geometry matches current geometry (good)
Input basis set matches current basis set (good)
Occupation numbers will be reassigned to an Aufbau configuration
MOs were renormalized
MOs were reorthogonalized (Cholesky)
                      ------------------
                      INITIAL GUESS DONE (   0.0 sec)
                      ------------------
             **** ENERGY FILE WAS UPDATED (input.en.tmp) ****
Finished Guess after   0.3 sec
Maximum memory used throughout the entire GUESS-calculation: 6.1 MB


           ************************************************************
           *        Program running with 8 parallel MPI-processes     *
           *              working on a common directory               *
           ************************************************************

-------------------------------------------------------------------------------------------
                                      ORCA LEAN-SCF
                              memory conserving SCF solver
-------------------------------------------------------------------------------------------

----------------------------------------D-I-I-S--------------------------------------------
Iteration    Energy (Eh)           Delta-E    RMSDP     MaxDP     DIISErr   Damp  Time(sec)
-------------------------------------------------------------------------------------------
               ***  Starting incremental Fock matrix formation  ***
                              *** Initializing SOSCF ***
---------------------------------------S-O-S-C-F--------------------------------------
Iteration    Energy (Eh)           Delta-E    RMSDP     MaxDP     MaxGrad    Time(sec)
--------------------------------------------------------------------------------------
    1    -153.4311257684987595     0.00e+00  7.68e-05  2.31e-04  2.70e-05     0.3
               *** Restarting incremental Fock matrix formation ***
    2    -153.4311262190875027    -4.51e-07  6.43e-05  2.15e-04  4.03e-05     0.3
    3    -153.4311260865449640     1.33e-07  4.30e-05  1.88e-04  1.27e-04     0.2
    4    -153.4311262627638826    -1.76e-07  2.37e-05  1.34e-04  9.23e-06     0.4
    5    -153.4311262641101621    -1.35e-09  8.37e-06  3.56e-05  8.13e-06     0.2
                 **** Energy Check signals convergence ****

               *****************************************************
               *                     SUCCESS                       *
               *           SCF CONVERGED AFTER   5 CYCLES          *
               *****************************************************

             **** ENERGY FILE WAS UPDATED (input.en.tmp) ****

----------------
TOTAL SCF ENERGY
----------------

Total Energy       :       -153.43112626651924 Eh           -4175.07320 eV

Components:
Nuclear Repulsion  :         71.10170992158801 Eh            1934.77589 eV
Electronic Energy  :       -224.53283618810724 Eh           -6109.84909 eV
One Electron Energy:       -348.56982507552596 Eh           -9485.06715 eV
Two Electron Energy:        124.03698888741872 Eh            3375.21806 eV

Virial components:
Potential Energy   :       -305.49818181463388 Eh           -8313.02815 eV
Kinetic Energy     :        152.06705554811461 Eh            4137.95495 eV
Virial Ratio       :          2.00897019221874

DFT components:
N(Alpha)           :       11.999997199951 electrons
N(Beta)            :       11.999997199951 electrons
N(Total)           :       23.999994399901 electrons
E(X)               :      -19.816495317976 Eh       
E(C)               :       -0.789913063675 Eh       
E(XC)              :      -20.606408381651 Eh       

---------------
SCF CONVERGENCE
---------------

  Last Energy change         ...    1.3463e-09  Tolerance :   1.0000e-08
  Last MAX-Density change    ...    3.5597e-05  Tolerance :   1.0000e-07
  Last RMS-Density change    ...    8.3729e-06  Tolerance :   5.0000e-09
  Last DIIS Error            ...    2.8718e-04  Tolerance :   5.0000e-07
  Last Orbital Gradient      ...    8.1329e-06  Tolerance :   1.0000e-05
  Last Orbital Rotation      ...    1.6276e-05  Tolerance :   1.0000e-05


----------------
ORBITAL ENERGIES
----------------

  NO   OCC          E(Eh)            E(eV) 
   0   2.0000     -18.782258      -511.0912 
   1   2.0000      -9.992575      -271.9118 
   2   2.0000      -9.889115      -269.0965 
   3   2.0000      -0.966728       -26.3060 
   4   2.0000      -0.660677       -17.9779 
   5   2.0000      -0.536864       -14.6088 
   6   2.0000      -0.450947       -12.2709 
   7   2.0000      -0.402955       -10.9650 
   8   2.0000      -0.380687       -10.3590 
   9   2.0000      -0.339297        -9.2327 
  10   2.0000      -0.284671        -7.7463 
  11   2.0000      -0.198817        -5.4101 
  12   0.0000      -0.085765        -2.3338 
  13   0.0000       0.036728         0.9994 
  14   0.0000       0.061676         1.6783 
  15   0.0000       0.081739         2.2242 
  16   0.0000       0.115771         3.1503 
  17   0.0000       0.188735         5.1357 
  18   0.0000       0.253333         6.8936 
  19   0.0000       0.336180         9.1479 
  20   0.0000       0.375039        10.2053 
  21   0.0000       0.446182        12.1412 
  22   0.0000       0.469342        12.7714 
*Only the first 10 virtual orbitals were printed.
-------
TIMINGS
-------

Total SCF time: 0 days 0 hours 0 min 1 sec 

Total time                  ....       1.943 sec
Sum of individual times     ....       1.585 sec  ( 81.6%)

SCF preparation             ....       0.181 sec  (  9.3%)
Fock matrix formation       ....       1.286 sec  ( 66.2%)
  Startup                   ....       0.013 sec  (  1.0% of F)
  Split-RI-J                ....       0.123 sec  (  9.6% of F)
  XC integration            ....       1.166 sec  ( 90.7% of F)
    XC Preparation          ....       0.000 sec  (  0.0% of XC)
    Basis function eval.    ....       0.135 sec  ( 11.6% of XC)
    Density eval.           ....       0.066 sec  (  5.7% of XC)
    XC-Functional eval.     ....       0.030 sec  (  2.5% of XC)
    XC-Potential eval.      ....       0.076 sec  (  6.6% of XC)
Diagonalization             ....       0.000 sec  (  0.0%)
Density matrix formation    ....       0.026 sec  (  1.4%)
Total Energy calculation    ....       0.007 sec  (  0.3%)
Population analysis         ....       0.000 sec  (  0.0%)
Orbital Transformation      ....       0.007 sec  (  0.3%)
Orbital Orthonormalization  ....       0.000 sec  (  0.0%)
DIIS solution               ....       0.016 sec  (  0.8%)
SOSCF solution              ....       0.061 sec  (  3.2%)
Finished LeanSCF after   2.0 sec

Maximum memory used throughout the entire LEANSCF-calculation: 5.5 MB


-------------------------------------------------------------------------------
                          DFT DISPERSION CORRECTION                            
                                                                               
                              DFTD3 V3.1  Rev 1                                
                          USING Becke-Johnson damping                          
-------------------------------------------------------------------------------
The PBE functional is recognized
Active option DFTDOPT                   ...         4   

molecular C6(AA) [au] = 414.536987 


            DFT-D V3
 parameters
 s6 scaling factor         :     1.0000 
 a1 scaling factor         :     0.4289 
 s8 scaling factor         :     0.7875 
 a2 scaling factor         :     4.4407 
 ad hoc parameters k1-k3   :    16.0000     1.3333    -4.0000 

 Edisp/kcal,au: -2.131514280365  -0.003396783859 
 E6   /kcal   :  -1.538978559 
 E8   /kcal   :  -0.592535722 
 % E8         :  27.798815480 

-------------------------   ----------------
Dispersion correction           -0.003396784
-------------------------   ----------------


-------------------------   --------------------
FINAL SINGLE POINT ENERGY      -153.434523050378
-------------------------   --------------------

                                *** OPTIMIZATION RUN DONE ***



                    ***********************HURRAY************************
                    ***        THE TS OPTIMIZATION HAS CONVERGED      ***
                    *****************************************************



---------------------------------------------------------------
                      PATH SUMMARY FOR NEB-TS             
---------------------------------------------------------------
All forces in Eh/Bohr. Global forces for TS.

Image     E(Eh)   dE(kcal/mol)  max(|Fp|)  RMS(Fp)
  0    -153.53120     0.00       0.00506   0.00313
  1    -153.50087    19.03       0.00142   0.00077
  2    -153.45735    46.34       0.00372   0.00139
  3    -153.43451    60.67       0.00100   0.00049 <= CI
 TS    -153.43452    60.66       0.00012   0.00006 <= TS
  4    -153.45849    45.63       0.00195   0.00081
  5    -153.49290    24.03       0.00164   0.00085
  6    -153.51375    10.95       0.01258   0.00447
----------
STATISTICS
----------

For the individual parts of the NEB, NEB-CI or NEB-TS run:

Number of iterations:
     NEB                               ... 24  66.7%
     TS optimization                   ... 12  33.3%
Number of SCF / gradient calculations:
     NEB                               ... 147  92.5%
     TS optimization                   ... 12  7.5%

----------
 TIMINGS
----------

For the individual parts of the NEB, NEB-CI or NEB-TS run:

Total                                  ...      252.595 sec
NEB                                    ...      185.100 sec  73.3%
TS Optimization                        ...       67.494 sec  26.7%



           ************************************************************
           *        Program running with 8 parallel MPI-processes     *
           *              working on a common directory               *
           ************************************************************

------------------------------------------------------------------------------
                              ORCA PROPERTY CALCULATIONS
------------------------------------------------------------------------------

GBWName                                 ... input.gbw
Number of atoms                         ...      7
Number of basis functions               ...     62
Max core memory                         ...    750 MB

Electric properties:
Dipole moment                           ... YES
Quadrupole moment                       ...  NO
Static polarizability (Dipole/Dipole)   ...  NO
Static polarizability (Dipole/Quad.)    ...  NO
Static polarizability (Quad./Quad.)     ...  NO
Static polarizability (Velocity)        ...  NO
Static hyperpolarizability              ...  NO

Atomic electric properties:
Dipole moment                           ...  NO
Quadrupole moment                       ...  NO
Static polarizability                   ...  NO

Choice of electric origin               ... Center of mass
Position of electric origin             ...    -0.366425     0.768437     0.239179

General magnetic properties:
Magnetizability                         ...  NO

EPR properties:
g-Tensor (aka g-matrix)                 ...  NO
Zero-Field splitting spin-orbit         ...  NO
Zero-field splitting spin-spin          ...  NO
Hyperfine couplings                     ...  NO (   0 nuclei)
Quadrupole couplings                    ...  NO (   0 nuclei)
Contact density                         ...  NO (   0 nuclei)

NMR properties:
Chemical shifts                         ...  NO (   0 nuclei)
Spin-rotation constants                 ...  NO (   0 nuclei)
Spin-spin couplings                     ...  NO (   0 nuclei,    0 pairs)

Choice of magnetic origin               ... GIAO
Position of magnetic origin             ...     0.000000     0.000000     0.000000

Properties with geometric perturbations:
SCF Hessian                             ...  NO
IR spectrum                             ...  NO
VCD spectrum                            ...  NO
X-ray spectroscopy properties:
SCF XES/XAS/RIXS spectra                ...  NO

SCF SOC stabilization energy            ...  NO
Diagonal Born-Oppenheimer correction    ...  NO

-------------
DIPOLE MOMENT
-------------

Method             : SCF
Type of density    : Electron Density
Multiplicity       :   1
Irrep              :   0
Energy             :  -153.4311262665192430 Eh
Basis              : AO
                                X                 Y                 Z
Electronic contribution:     -1.454763300       2.080827844       0.591285230
Nuclear contribution   :      1.297004109      -2.574928891      -0.751012016
                        -----------------------------------------
Total Dipole Moment    :     -0.157759191      -0.494101047      -0.159726787
                        -----------------------------------------
Magnitude (a.u.)       :      0.542712127
Magnitude (Debye)      :      1.379464600



--------------------
Rotational spectrum 
--------------------
 
Rotational constants in cm-1:             1.614528             0.402441             0.334962 
Rotational constants in MHz :         48402.326679         12064.862760         10041.916440 

Dipole components along the rotational axes: 
x,y,z [a.u.] :    -0.396210    -0.334988     0.159176 
x,y,z [Debye]:    -1.007086    -0.851472     0.404593 

 

Dipole moment calculation done in   0.0 sec 

Maximum memory used throughout the entire PROP-calculation: 4.4 MB

--------------------------------
SUGGESTED CITATIONS FOR THIS RUN
--------------------------------

Below you find a list of papers that are relevant to this ORCA run
We neither can nor want to force you to cite these papers, but we appreciate if you do
You receive ORCA, which is the product of decades of hard work by many enthusiastic individuals, for free
The only thing we kindly ask in return is that you cite our papers,
We deeply appreciate it, if you show your appreciation for ORCA by not just citing the generic ORCA reference.

Please note that relegating all ORCA citations to the supporting information does *not* help us.
SI sections are not indexed - citations you put there will not count into any citation statistics
But we need these citations in order to attract the funding resources that allow us to do what we are doing

Therefore, if you are a happy ORCA user, please consider citing a few of the papers listed below in the main body of your paper

In addition to the list printed below, the program has created the file input.bibtex that contains the list in bibtex format
You can import this file easily into all common literature databanks and citation aid programs


List of essential papers. We consider these as the minimum necessary citations

  1. Neese, F.
     Software update: the ORCA program system, version 6.0
     WIRES Comput. Molec. Sci. 2025 15(1), e70019
     doi.org/10.1002/wcms.7019

List of papers to cite with high priority. The work reported in these papers was absolutely
necessary for this run to complete.
Our perspective: the developers of density functionals and basis sets usually get cited in chemistry papers
Good! But without the algorithms to do something with them, the functionals or basis sets would not do anything.
Hence, in our opinion, the algorithm design and method developments papers are equally worthy of getting cited

  1. Neese, F.
     An improvement of the resolution of the identity approximation for the formation of the Coulomb matrix
     J. Comp. Chem. 2003 24(14), 1740-1747
     doi.org/10.1002/jcc.10318
  2. Grimme, S.; Antony, J.; Ehrlich, S.; Krieg, H.
     A consistent and accurate ab initio parametrization of density functional dispersion correction (DFT-D) for the 94 elements H-Pu
     J. Chem. Phys. 2010 132 , 154104
     doi.org/10.1063/1.3382344
  3. Grimme, S.; Ehrlich, S.; Goerigk, L.
     Effect of the damping function in dispersion corrected density functional theory
     J. Comput. Chem. 2011 32(7), 1456-1465
     doi.org/10.1002/jcc.21759
  4. Asgeirsson, V.; Orri Birgisson, B.; Björnsson, R.; Becker, U.; Neese, F.; Riplinger, C.; Jonsson, H.
     Nudged Elastic Band Method for Molecular Reactions Using Energy-Weighted Springs Combined with Eigenvector Following
     J. Chem. Theory Comput. 2021 17(8), 4929-4945
     doi.org/10.1021/acs.jctc.1c00462
  5. Neese, F.
     The SHARK Integral Generation and Digestion System
     J. Comp. Chem. 2022 44(3), 381
     doi.org/10.1002/jcc.26942
  6. Schmerwitz, Y.L.A.; Asgeirsson, V.; Jonsson, H.
     Improved Initialization of Optimal Path Calculations
     Using Sequential Traversal over the
     Image-Dependent Pair Potential Surface
     J. Chem. Theory Comput. 2023 20(1), 155-163
     doi.org/10.1021/acs.jctc.3c01111

List of suggested additional citations. These are papers that are important in the 'surrounding' of 
of this run, or papers that preceded the highly important papers. If you like your results we are grateful for a citation.

  1. Neese, F.
     The ORCA program system
     WIRES Comput. Molec. Sci. 2012 2(1), 73-78
     doi.org/10.1002/wcms.81
  2. Neese, F.
     Software update: the ORCA program system, version 4.0
     WIRES Comput. Molec. Sci. 2018 8(1), 1-6
     doi.org/10.1002/wcms.1327
  3. Neese, F.; Wennmohs, F.; Becker, U.; Riplinger, C.
     The ORCA quantum chemistry program package
     J. Chem. Phys. 2020 152(22), 224108
     doi.org/10.1063/5.0004608
  4. Neese, F.
     Software update: The ORCA program system—Version 5.0
     WIRES Comput. Molec. Sci. 2022 12(1), e1606
     doi.org/10.1002/wcms.1606

List of optional additional citations

  1. Neese, F.
     Approximate second-order SCF convergence for spin unrestricted wavefunctions
     Chem. Phys. Lett. 2000 325(1-3), 93-98
     doi.org/10.1016/s0009-2614(00)00662-x

Timings for individual modules:

Sum of individual times          ...      259.270 sec (=   4.321 min)
Startup calculation              ...       10.090 sec (=   0.168 min)   3.9 %
SCF iterations                   ...       49.019 sec (=   0.817 min)  18.9 %
Property calculations            ...        0.264 sec (=   0.004 min)   0.1 %
SCF Gradient evaluation          ...       14.767 sec (=   0.246 min)   5.7 %
Geometry relaxation              ...        0.030 sec (=   0.000 min)   0.0 %
NEB Iterations                   ...      185.100 sec (=   3.085 min)  71.4 %
                             ****ORCA TERMINATED NORMALLY****
TOTAL RUN TIME: 0 days 0 hours 4 minutes 14 seconds 824 msec
