
                                 *****************
                                 * O   R   C   A *
                                 *****************

                                            #,                                       
                                            ###                                      
                                            ####                                     
                                            #####                                    
                                            ######                                   
                                           ########,                                 
                                     ,,################,,,,,                         
                               ,,#################################,,                 
                          ,,##########################################,,             
                       ,#########################################, ''#####,          
                    ,#############################################,,   '####,        
                  ,##################################################,,,,####,       
                ,###########''''           ''''###############################       
              ,#####''   ,,,,##########,,,,          '''####'''          '####       
            ,##' ,,,,###########################,,,                        '##       
           ' ,,###''''                  '''############,,,                           
         ,,##''                                '''############,,,,        ,,,,,,###''
      ,#''                                            '''#######################'''  
     '                                                          ''''####''''         
             ,#######,   #######,   ,#######,      ##                                
            ,#'     '#,  ##    ##  ,#'     '#,    #''#        ,####,   ,####,        
            ##       ##  ##   ,#'  ##            #'  '#       #'       #'  '#        
            ##       ##  #######   ##           ,######,      #####,   #    #        
            '#,     ,#'  ##    ##  '#,     ,#' ,#      #,     #,   #   #,  ,#        
             '#######'   ##     ##  '#######'  #'      '#     '####' # '####'        



                #########################################################
                #                        -***-                          #
                #          Department of theory and spectroscopy        #
                #                                                       #
                #                      Frank Neese                      #
                #                                                       #
                #     Directorship, Architecture, Infrastructure        #
                #                    SHARK, DRIVERS                     #
                #        Core code/Algorithms in most modules           #
                #                                                       #
                #        Max Planck Institute fuer Kohlenforschung      #
                #                Kaiser Wilhelm Platz 1                 #
                #                 D-45470 Muelheim/Ruhr                 #
                #                      Germany                          #
                #                                                       #
                #                  All rights reserved                  #
                #                        -***-                          #
                #########################################################


                         Program Version 6.0.1  -  RELEASE   -


 With contributions from (in alphabetic order):
[Max-Planck-Institut fuer Kohlenforschung]                               
  Daniel Aravena         : Magnetic Suceptibility                        
  Michael Atanasov       : Ab Initio Ligand Field Theory (pilot matlab implementation)
  Alexander A. Auer      : GIAO ZORA, VPT2 properties, NMR spectrum      
  Ute Becker             : All parallelization in ORCA, NUMFREQ, NUMCALC 
  Giovanni Bistoni       : ED, misc. LED, open-shell LED, HFLD           
  Martin Brehm           : Molecular dynamics                            
  Dmytro Bykov           : pre 5.0 version of the SCF Hessian            
  Marcos Casanova-Páez   : Triplet and SCS-CIS(D). UHF-(DLPNO)-IP/EA/STEOM-CCSD. UHF-CVS-IP/STEOM-CCSD   
  Vijay G. Chilkuri      : MRCI spin determinant printing, contributions to CSF-ICE 
  Pauline Colinet        : FMM embedding                                 
  Dipayan Datta          : RHF DLPNO-CCSD density                        
  Achintya Kumar Dutta   : EOM-CC, STEOM-CC                              
  Nicolas Foglia         : Exact transition moments, OPA infrastructure, MCD improvements    
  Dmitry Ganyushin       : Spin-Orbit,Spin-Spin,Magnetic field MRCI      
  Miquel Garcia-Rates    : C-PCM and meta-GGA Hessian, CCSD/C-PCM, Gaussian charge scheme 
  Tiago L. C. Gouveia    : GS-ROHF, GS-ROCIS                             
  Yang Guo               : DLPNO-NEVPT2, F12-NEVPT2, CIM, IAO-localization        
  Andreas Hansen         : Spin unrestricted coupled pair/coupled cluster methods 
  Ingolf Harden          : AUTO-CI MPn and infrastructure                
  Benjamin Helmich-Paris : MC-RPA, TRAH-(SCF,CASSCF), AVAS, COSX integrals, SCF dyn. polar. 
  Lee Huntington         : MR-EOM, pCC                                   
  Robert Izsak           : Overlap fitted RIJCOSX, COSX-SCS-MP3, EOM     
  Riya Kayal             : Wick's Theorem for AUTO-CI, AUTO-CI UHF-CCSDT 
  Emily Kempfer          : AUTO-CI, RHF CISDT and CCSDT                  
  Christian Kollmar      : KDIIS, OOCD, Brueckner-CCSD(T), CCSD density, CASPT2, CASPT2-K, improved NEVPT2 
  Axel Koslowski         : Symmetry handling                             
  Simone Kossmann        : meta-GGA functionals, TD-DFT gradient, OOMP2, (MP2 Hessian; deprecated post 5.0) 
  Lucas Lang             : DCDCAS                                        
  Marvin Lechner         : AUTO-CI (C++ implementation), FIC-MRCC        
  Spencer Leger          : CASSCF response                               
  Dagmar Lenk            : GEPOL surface, SMD, ORCA-2-JSON               
  Dimitrios Liakos       : Extrapolation schemes; Compound Job, initial MDCI parallelization 
  Dimitrios Manganas     : Further ROCIS development; embedding schemes. LFT, Crystal Embedding 
  Dimitrios Pantazis     : SARC Basis sets                               
  Anastasios Papadopoulos: AUTO-CI, single reference methods and gradients 
  Taras Petrenko         : pre 6.0 DFT Hessian and TD-DFT gradient, (ASA, deprecated), ECA, 1-Electron XAS/XES, NRVS 
  Peter Pinski           : DLPNO-MP2, DLPNO-MP2 Gradient                 
  Christoph Reimann      : Effective Core Potentials                     
  Marius Retegan         : Local ZFS, SOC                                
  Christoph Riplinger    : Optimizer, TS searches, QM/MM, DLPNO-CCSD(T), (RO)-DLPNO pert. Triples 
  Michael Roemelt        : Original ROCIS implementation                 
  Masaaki Saitow         : Open-shell DLPNO-CCSD energy and density      
  Barbara Sandhoefer     : DKH picture change effects                    
  Kantharuban Sivalingam : CASSCF convergence/infrastructure, NEVPT2 and variants, FIC-MRCI 
  Bernardo de Souza      : ESD, SOC TD-DFT                               
  Georgi L. Stoychev     : AutoAux, RI-MP2 NMR, DLPNO-MP2 response, X2C  
  Van Anh Tran           : RI-MP2 g-tensors                              
  Willem Van den Heuvel  : Paramagnetic NMR                              
  Zikuan Wang            : NOTCH, Electric field optimization            
  Frank Wennmohs         : Technical directorship and infrastructure     
  Hang Xu                : AUTO-CI-Response properties                   
                                                                         
[FACCTs GmbH]                                                            
  Markus Bursch, Miquel Garcia-Rates, Christoph Riplinger, Bernardo de Souza, Georgi L. Stoychev 
                                                                 
  APM, Basis sets (HGBS, AHGBS, def-TZVP (Ac-Lr), def2-XVPD (La-Lu)), CI-OPT, improved COSX, DLPNO-Multilevel,           
  DOCKER, DRACO, updates on ESD, GOAT, IRC, LR-CPCM, MBIS, meta-GGA TD-DFT gradient, ML-optimized integration grids, 
  MM, NACMEs, nearIR, NEB, NEB-TS, NL-DFT gradient (VV10), 2- and 3-layer-ONIOM, interface openCOSMO-RS, QMMM,   
  Crystal-QMMM, SF, symmetry and pop. for TD-DFT, r2SCAN hybrids, SOLVATOR                                   
                                                                         
[Other institutions]                                                     
  V. Asgeirsson          : NEB                                           
  Christoph Bannwarth    : sTDA-DFT, sTD-DFT, PBEh-3c, B97-3c, D3        
  Sebastian Ehlert       : rSCAN, r2SCAN, r2SCAN-3c, D4, dhf basis sets  
  Marvin Friede          : D4 for Fr, Ra, Ac-Lr                          
  Lars Goerigk           : TD-DFT with DH, B97 family of functionals     
  Stefan Grimme          : VdW corrections, initial TS optimization, DFT functionals, gCP, sTDA/sTD-DF 
  Waldemar Hujo          : DFT-NL                                        
  H. Jonsson             : NEB                                           
  Holger Kruse           : gCP                                           
  Marcel Mueller         : wB97X-3c, vDZP basis set                      
  Hagen Neugebauer       : wr2SCAN                                       
  Tobias Risthaus        : range-separated hybrid DFT                    
  Lukas Wittmann         : regularized MP2, r2SCAN double-hybrids, wr2SCAN        
                                                                         
We gratefully acknowledge several colleagues who have allowed us to      
interface, adapt or use parts of their codes:                            
  Ed Valeev, F. Pavosevic, A. Kumar             : LibInt (2-el integral package), F12 methods 
  Garnet Chan, S. Sharma, J. Yang, R. Olivares  : DMRG                   
  Ulf Ekstrom                                   : XCFun DFT Library      
  Mihaly Kallay                                 : mrcc  (arbitrary order and MRCC methods)
  Frank Weinhold                                : gennbo (NPA and NBO analysis)           
  Simon Mueller                                 : openCOSMO-RS                            
  Christopher J. Cramer and Donald G. Truhlar   : smd solvation model                     
  S Lehtola, MJT Oliveira, MAL Marques          : LibXC Library                           
  Liviu Ungur et al                             : ANISO software                          


 Your calculation uses the libint2 library for the computation of 2-el integrals
 For citations please refer to: http://libint.valeyev.net

 Your ORCA version has been built with support for libXC version: 6.2.2
 For citations please refer to: https://libxc.gitlab.io

 This ORCA versions uses:
   CBLAS   interface :  Fast vector & matrix operations
   LAPACKE interface :  Fast linear algebra routines
   SCALAPACK package :  Parallel linear algebra routines
   Shared memory     :  Shared parallel matrices
   BLAS/LAPACK       :  OpenBLAS 0.3.27  USE64BITINT DYNAMIC_ARCH NO_AFFINITY Haswell SINGLE_THREADED
        Core in use  :  Haswell
   Copyright (c) 2011-2014, The OpenBLAS Project


NOTE: MaxCore=750 MB was set to SCF,MP2,MDCI,CIPSI,MRCI and CIS
      => If you want to overwrite this, your respective input block should be placed after the MaxCore statement


***************************************
The coordinates will be read from file: NEB_reactant.xyz
***************************************


Your calculation utilizes the atom-pairwise dispersion correction
with the Becke-Johnson damping scheme (D3BJ)


Your calculation utilizes a Nudged-Elastic-Band implementation
 by V.Asgeirsson, C. Riplinger & H. Jonsson
Please cite in your paper:
 V. Asgeirsson et al., in prep. (2019)
   

Warning: RI is on but no J-basis has been assigned. Assigning Def2/J (nothing to worry about!)
================================================================================

----- Orbital basis set information -----
Your calculation utilizes the basis: def2-SVP
   F. Weigend and R. Ahlrichs, Phys. Chem. Chem. Phys. 7, 3297 (2005).

----- AuxJ basis set information -----
Your calculation utilizes the auxiliary basis: def2/J
   F. Weigend, Phys. Chem. Chem. Phys. 8, 1057 (2006).

================================================================================
                                        WARNINGS
                       Please study these warnings very carefully!
================================================================================


WARNING: Geometry Optimization
  ===> : Switching off AutoStart
         For restart on a previous wavefunction, please use MOREAD

================================================================================
                                       INPUT FILE
================================================================================
NAME = NEB-TS_with_guess.inp
|  1> %pal
|  2>   nprocs 4
|  3> end
|  4> 
|  5> %maxcore 750
|  6> 
|  7> ! PBE def2-SVP D3BJ
|  8> ! NEB-TS
|  9> 
| 10> %neb
| 11>   product "NEB_product.xyz"
| 12>   ts "NEB_ts_guess.xyz"
| 13>   nimages 5
| 14> end
| 15> 
| 16> * xyzfile 0 1 NEB_reactant.xyz
| 17> 
| 18>                          ****END OF INPUT****
================================================================================


--------------------------------------------------------------------------------
                        Nudged Elastic Band Calculation
--------------------------------------------------------------------------------

Number of images (incl. end points)     ....  7
Number of intermediate images           ....  5
Number of optimized images              ....  5
Optimization of end points before NEB   ....  NO
Use existing gbw files for MO input     ....  NO
Number of atoms                         ....  7
Number of (active) degrees of freedom   ....  21
Constrained atoms                       ....  None

-----------------------------------------
  REACTANT (ANGSTROEM)
-----------------------------------------
C     -4.283709     1.625615    -0.002642 
C     -2.974068     0.889792     0.008208 
H     -3.024283     0.063020     0.735501 
H     -2.144976     1.563000     0.255117 
H     -2.807253     0.423646    -0.976643 
O     -4.416673     2.808623     0.230366 
H     -5.177487     0.992025    -0.249898 

-----------------------------------------
  PRODUCT (ANGSTROEM)
-----------------------------------------
C     -4.278583     1.484518     0.033611 
C     -3.070429     0.911286     0.052179 
H     -2.193945     1.412820     0.468350 
H     -3.806505     3.140723     0.865082 
H     -2.937113    -0.087695    -0.356607 
O     -4.609602     2.722461     0.502765 
H     -5.158632     0.988607    -0.380772 



----------------------
NEB settings
----------------------
Method type                             ....  climbing image
Threshold for climbing image            ....  2.00e-02 Eh/Bohr 
Free endpoints                          ....  off 
Tangent type                            ....  improved 
Number of intermediate images           ....  5 
Number of images free to move           ....  5 
Spring type for image distribution      ....  distance between adjacent images 
Spring constant                         ....  energy weighted (0.0100 -to- 0.1000) Eh/Bohr^2 
Spring force perp. to the path          ....  none 
Generation of initial path              ....  image dependent pair potential 
Initial path via TS guess (as image #)  ....  NEB_ts_guess.xyz (determined on-the-fly)
Minimization of RMSD: Rotation          ....  always 
Minimization of RMSD: Translation type  ....  centroid 
Center fixed to origin                  ....  true 
Remove external force                   ....  true 

Reparametrization of the path           ....  off 
Convergence thresholds:
Convergence monitored for               ....  all images
Scaling factor                          ....  10.00

Convergence parameters for regular images:
               Max(|Fp|)                ....  2.00e-02 Eh/Bohr
               RMS(Fp)                  ....  1.00e-02 Eh/Bohr

Convergence parameters for climbing image:
               Max(|F|)                 ....  2.00e-03 Eh/Bohr
               RMS(F)                   ....  1.00e-03 Eh/Bohr
Optimization method:
Method                                  ....  L-BFGS
Max. iterations                         ....  500 
Step size                               ....  1.00 
Maximum allowed step size               ....  0.10 Bohr

LBFGS parameters: 
               Memory                   ....  20 
               Initial step size        ....  0.0010 
               Estimate curvature       ....  YES 
               Reset on maxmove         ....  YES 
               Reparam. on reset        ....  NO 
Generation of  the initial path:
Minimize RMSD between reactant and TS configurations          .... done
       RMSD (R-TS) before minimization  ....  4.1199 Bohr
       RMSD (R-TS) after minimization   ....  0.5454 Bohr
Minimize RMSD between TS and product configurations           .... done
       RMSD (TS-P) before minimization  ....  4.4622 Bohr
       RMSD (TS-P) after minimization   ....  0.5674 Bohr
Optimal image number for TS guess       ....  3
Performing linear interpolation         ....  done
Fragment preparation                           ....  true
Bond cutoff factor                             ....  1.200e+00
Max. fragment distance                         ....  3.500e+00 Ang.
Interpolation using                            ....  IDPP (Image Dependent Pair Potential)
IDPP-Settings:
       Initial path for IDPP optimization      ....  Linear interpolation
       Pairwise distance interpolation         ....  Linear
       Remove global transl. and rot.          ....  true
       Convergence tolerance                   ....  0.0100 1/Ang.^3
       Max. number of iterations               ....    7000
       Spring constant                         ....  1.0000 1/Ang.^4
       Time step                               ....  0.0100 fs
       Max. movement per iteration             ....  0.0500 Ang.
       Full print                              ....  false 
Running IDPP from reactant to TS guess structure:
idpp initial path generation successfully converged in 99 iterations
Running IDPP from TS guess structure to product:
idpp initial path generation successfully converged in 85 iterations
Displacement along initial path:              5.1451 Bohr
Writing initial trajectory to file      ....  NEB-TS_with_guess_initial_path_trj.xyz



----------------------
NEB OPTIMIZATION      
----------------------

Following output files will be written:
Energy profile during opt. written to    ....  NEB-TS_with_guess.interp
Optimization log-file                    ....  NEB-TS_with_guess.NEB.log
Current trajectory will be written to    ....  NEB-TS_with_guess_MEP_trj.xyz
       and to allxyz file                ....  NEB-TS_with_guess_MEP.allxyz
       and individual images to xyz file ....  NEB-TS_with_guess_im{NIm}.xyz
Trajectory history will be written to    ....  NEB-TS_with_guess_MEP_ALL_trj.xyz
Converged CI will be written to          ....  NEB-TS_with_guess_NEB-CI_converged.xyz
Converged TS will be written to          ....  NEB-TS_with_guess_NEB-TS_converged.xyz

Single point energy and gradient calculation of reactant and
product configurations (have to be performed only once)
Properties of fixed NEB end points:
               Reactant:
                         E               ....   -153.531199 Eh
                         RMS(F)          ....      0.003160 Eh/Bohr
                         MAX(|F|)        ....      0.004942 Eh/Bohr
               Product:
                         E               ....   -153.513746 Eh
                         RMS(F)          ....      0.004485 Eh/Bohr
                         MAX(|F|)        ....      0.012495 Eh/Bohr



Starting iterations:

Optim.  Iteration  HEI  E(HEI)-E(0)  max(|Fp|)   RMS(Fp)    dS
Switch-on CI threshold               0.020000 
   LBFGS     0      3    0.096676    0.075151   0.016496  5.1451       
   LBFGS     1      3    0.096675    0.048048   0.009943  5.1413       
   LBFGS     2      3    0.096662    0.045489   0.007944  5.2126       
   LBFGS     3      3    0.096637    0.032972   0.006124  5.2277       
   LBFGS     4      3    0.096597    0.036171   0.006357  5.2658       
   LBFGS     5      3    0.096460    0.036446   0.007130  5.4385       
   LBFGS     6      3    0.096488    0.026784   0.005040  5.4510       
   LBFGS     7      3    0.096498    0.016352   0.003094  5.4630       

Image  3 will be converted to a climbing image in the next iteration (max(|Fp|) < 0.0200) 

Optim.  Iteration  CI   E(CI)-E(0)   max(|Fp|)   RMS(Fp)    dS     max(|FCI|)   RMS(FCI)
Convergence thresholds               0.020000   0.010000            0.002000    0.001000 
   LBFGS     8      3    0.096485    0.012066   0.003009  5.4691    0.005504    0.002246       
   LBFGS     9      3    0.096589    0.020951   0.003472  5.4860    0.004081    0.001621       
   LBFGS    10      3    0.096696    0.039439   0.006693  5.6098    0.000848    0.000400       
   LBFGS    11      3    0.096666    0.015773   0.002573  5.5863    0.002016    0.000819       
   LBFGS    12      3    0.096668    0.001663   0.000538  5.5701    0.001954    0.000764       

                                .--------------------.
          ----------------------| CI-NEB convergence |-------------------------
          Item                value                   Tolerance       Converged
          ---------------------------------------------------------------------
          RMS(Fp)             0.0005377827            0.0100000000      YES
          MAX(|Fp|)           0.0016634425            0.0200000000      YES
          RMS(FCI)            0.0007635705            0.0010000000      YES
          MAX(|FCI|)          0.0019543520            0.0020000000      YES
          ---------------------------------------------------------------------

The elastic band and climbing image have converged successfully to a MEP in 12 iterations!


                    *********************H U R R A Y*********************
                    ***        THE NEB OPTIMIZATION HAS CONVERGED     ***
                    *****************************************************



---------------------------------------------------------------
                         PATH SUMMARY              
---------------------------------------------------------------
All forces in Eh/Bohr.

Image Dist.(Ang.)    E(Eh)   dE(kcal/mol)  max(|Fp|)  RMS(Fp)
  0     0.000    -153.53120      0.00       0.00505   0.00313
  1     0.916    -153.49954     19.87       0.00166   0.00077
  2     1.222    -153.45559     47.44       0.00138   0.00056
  3     1.467    -153.43453     60.66       0.00032   0.00014 <= CI
  4     1.756    -153.46175     43.58       0.00148   0.00058
  5     2.151    -153.49407     23.30       0.00119   0.00070
  6     2.948    -153.51375     10.95       0.01249   0.00448

Straight line distance between images along the path:
        D( 0- 1) =   0.9157 Ang.
        D( 1- 2) =   0.3058 Ang.
        D( 2- 3) =   0.2452 Ang.
        D( 3- 4) =   0.2894 Ang.
        D( 4- 5) =   0.3944 Ang.
        D( 5- 6) =   0.7970 Ang.

---------------------------------------------------------------
               INFORMATION ABOUT SADDLE POINT     
---------------------------------------------------------------

Climbing image                            ....  3 
Energy                                    ....  -153.43453050 Eh
Max. abs. force                           ....  1.9544e-03 Eh/Bohr

-----------------------------------------
  SADDLE POINT (ANGSTROEM)
-----------------------------------------
C     -0.662337     0.278748    -0.097848 
C      0.507610    -0.514236    -0.169139 
H      0.837999    -0.859580     0.831108 
H      0.737229     0.866274     0.387924 
H      0.695913    -1.243376    -0.973992 
O     -0.449757     1.364665     0.566684 
H     -1.666658     0.107505    -0.544737 

-----------------------------------------
  FORCES (Eh/Bohr)
-----------------------------------------
C      0.000406    -0.000507    -0.000426 
C     -0.000628    -0.001043    -0.000623 
H      0.000624     0.000471    -0.000187 
H     -0.001071     0.001954     0.001481 
H     -0.000376    -0.000879    -0.000162 
O      0.000875    -0.000325     0.000029 
H      0.000170     0.000329    -0.000112 

-----------------------------------------
  UNIT TANGENT
-----------------------------------------
C      0.107509    -0.150889    -0.128458 
C     -0.175352    -0.293485    -0.104627 
H      0.164120     0.147130    -0.073094 
H     -0.397990     0.531008     0.356606 
H     -0.091902    -0.217040    -0.047742 
O      0.346306    -0.095587     0.046237 
H      0.047310     0.078863    -0.048922 
 => Unit tangent is an approximation to the TS mode at the saddle point

Next a TS optimization is performed on the CI from the NEB run.

         *************************************************************
         *                       TS OPTIMIZATION                     *
         *************************************************************


Following output files will be written:
Converged TS will be written to          ....  NEB-TS_with_guess_NEB-TS_converged.xyz
                                         ....  NEB-TS_with_guess.xyz
Current trajectory will be written to    ....  NEB-TS_with_guess_trj.xyz
Initial Hessian will be stored in        ....  NEB-TS_with_guess.appr.hess
 (Almloef) Geometry optimization settings:
Update method            Update   .... Bofill
Choice of coordinates    CoordSys .... (2022) Redundant Internals
Initial Hessian          InHess   .... Read
Max. no of cycles        MaxIter  .... 50

Convergence Tolerances:
Energy Change            TolE     ....  5.0000e-06 Eh
Max. Gradient            TolMAXG  ....  3.0000e-04 Eh/bohr
RMS Gradient             TolRMSG  ....  1.0000e-04 Eh/bohr
Max. Displacement        TolMAXD  ....  4.0000e-03 bohr
RMS Displacement         TolRMSD  ....  2.0000e-03 bohr
Strict Convergence                .... False

------------------------------------------------------------------------------
                        ORCA OPTIMIZATION COORDINATE SETUP
------------------------------------------------------------------------------

The optimization will be done in redundant internal coordinates (2022)
Making redundant internal coordinates   ...  (2022 redundants) done
Following TS mode number                ...     0
TS-active-atoms for coordinate setup... 1 3 5 
Evaluating the initial hessian          ... (Reading Exact Hessian)...  
InHessName: NEB-TS_with_guess.appr.hess	The file <NEB-TS_with_guess.appr.hess> is opened as a .hess file
done
done
Evaluating the coordinates              ...  done
Calculating the B-matrix                .... done
Calculating the G-matrix                .... done
Diagonalizing the G-matrix              .... done
The first mode is                       ....    7
The number of degrees of freedom        ....   15

    -----------------------------------------------------------------
                    Redundant Internal Coordinates


    -----------------------------------------------------------------
         Definition                    Initial Value    d2E/dq (diagonal element)
    -----------------------------------------------------------------
      1. B(C   1,C   0)                  1.4152         0.386392   
      2. B(H   2,C   1)                  1.1086         0.336304   
      3. B(H   3,C   1)                  1.5063         0.017308   
      4. B(H   3,C   0)                  1.5937         0.056104   
      5. B(H   4,C   1)                  1.1022         0.354788   
      6. B(O   5,H   3)                  1.2997         0.011312   
      7. B(O   5,C   1)                  2.2334         0.110628   
      8. B(O   5,C   0)                  1.2907         0.500775   
      9. B(H   6,C   0)                  1.1125         0.331292   
     10. A(C   1,C   0,H   6)          129.7795         0.197582   
     11. A(O   5,C   0,H   6)          119.0116         0.200824   
     12. A(C   1,C   0,O   5)          111.1744         0.094652   
     13. A(H   2,C   1,H   4)          113.6950         0.174761   
     14. A(C   0,C   1,H   4)          123.2781         0.253040   
     15. A(C   0,C   1,H   2)          112.0552         0.242365   
     16. A(C   0,O   5,H   3)           75.9358         0.041372   
     17. D(H   2,C   1,C   0,O   5)     63.3856         0.020400   
     18. D(H   4,C   1,C   0,O   5)   -154.9348         0.025834   
     19. D(H   4,C   1,C   0,H   6)     22.8666         0.016147   
     20. D(H   2,C   1,C   0,H   6)   -118.8130         0.018703   
     21. D(H   3,O   5,C   0,H   6)   -167.4466         0.029631   
     22. D(H   3,O   5,C   0,C   1)     10.6215         0.029333   
    -----------------------------------------------------------------

Number of atoms                         .... 7
Number of degrees of freedom            .... 22


         *************************************************************
         *                GEOMETRY OPTIMIZATION CYCLE   1            *
         *************************************************************


           ************************************************************
           *        Program running with 4 parallel MPI-processes     *
           *              working on a common directory               *
           ************************************************************
------------------------------------------------------------------------------
                             ORCA STARTUP CALCULATIONS
                           -- RI-GTO INTEGRALS CHOSEN --
------------------------------------------------------------------------------
------------------------------------------------------------------------------
                   ___                                                        
                  /   \      - P O W E R E D   B Y -                         
                 /     \                                                     
                 |  |  |   _    _      __       _____    __    __             
                 |  |  |  | |  | |    /  \     |  _  \  |  |  /  |          
                  \  \/   | |  | |   /    \    | | | |  |  | /  /          
                 / \  \   | |__| |  /  /\  \   | |_| |  |  |/  /          
                |  |  |   |  __  | /  /__\  \  |    /   |      \           
                |  |  |   | |  | | |   __   |  |    \   |  |\   \          
                \     /   | |  | | |  |  |  |  | |\  \  |  | \   \       
                 \___/    |_|  |_| |__|  |__|  |_| \__\ |__|  \__/        
                                                                              
                      - O R C A' S   B I G   F R I E N D -                    
                                      &                                       
                       - I N T E G R A L  F E E D E R -                       
                                                                              
 v1 FN, 2020, v2 2021, v3 2022-2024                                           
------------------------------------------------------------------------------


----------------------
SHARK INTEGRAL PACKAGE
----------------------

Number of atoms                             ...      7
Number of basis functions                   ...     62
Number of shells                            ...     30
Maximum angular momentum                    ...      2
Integral batch strategy                     ... SHARK/LIBINT Hybrid
RI-J (if used) integral strategy            ... SPLIT-RIJ (Revised 2003 algorithm where possible)
Printlevel                                  ...      1
Contraction scheme used                     ... SEGMENTED contraction
Prescreening option                         ... SCHWARTZ
   Thresh                                   ... 2.500e-11
   Tcut                                     ... 2.500e-12
   Tpresel                                  ... 2.500e-12 
Coulomb Range Separation                    ... NOT USED
Exchange Range Separation                   ... NOT USED
Multipole approximations                    ... NOT USED
Finite Nucleus Model                        ... NOT USED
CABS basis                                  ... NOT available
Auxiliary Coulomb fitting basis             ... AVAILABLE
   # of basis functions in Aux-J            ...    191
   # of shells in Aux-J                     ...     65
   Maximum angular momentum in Aux-J        ...      4
Auxiliary J/K fitting basis                 ... NOT available
Auxiliary Correlation fitting basis         ... NOT available
Auxiliary 'external' fitting basis          ... NOT available

Checking pre-screening integrals            ... done (  0.0 sec) Dimension = 30
Check shell pair data                       ... done (  0.0 sec)
Shell pair information
Shell pair cut-off parameter TPreSel        ...   2.5e-12
Total number of shell pairs                 ...       465
Shell pairs after pre-screening             ...       464
Total number of primitive shell pairs       ...      1647
Primitive shell pairs kept                  ...      1433
          la=0 lb=0:    152 shell pairs
          la=1 lb=0:    170 shell pairs
          la=1 lb=1:     55 shell pairs
          la=2 lb=0:     51 shell pairs
          la=2 lb=1:     30 shell pairs
          la=2 lb=2:      6 shell pairs

Calculating one electron integrals          ... done (  0.0 sec)
Calculating RI/J V-Matrix + Cholesky decomp.... done (  0.0 sec)
Calculating Nuclear repulsion               ... done (  0.0 sec) ENN=     71.142075620510 Eh

Diagonalization of the overlap matrix:
Smallest eigenvalue                        ... 4.016e-03
Time for diagonalization                   ...    0.001 sec
Threshold for overlap eigenvalues          ... 1.000e-07
Number of eigenvalues below threshold      ... 0
Time for construction of square roots      ...    0.000 sec
Total time needed                          ...    0.001 sec

-------------------
DFT GRID GENERATION
-------------------

General Integration Accuracy     IntAcc      ... 4.388
Radial Grid Type                 RadialGrid  ... OptM3 with GC (2021)
Angular Grid (max. ang.)         AngularGrid ... 4 (Lebedev-302)
Angular grid pruning method      GridPruning ... 4 (adaptive)
Weight generation scheme         WeightScheme... mBecke (2022)
Basis function cutoff            BFCut       ... 1.0000e-11
Integration weight cutoff        WCut        ... 1.0000e-14
Partially contracted basis set               ... off
Rotationally invariant grid construction     ... off
Angular grids for H and He will be reduced by one unit

Total number of grid points                  ...    31358
Total number of batches                      ...      494
Average number of points per batch           ...       63
Average number of grid points per atom       ...     4480
Initializing property integral containers    ... done (  0.0 sec)

SHARK setup successfully completed in   0.2 seconds

Maximum memory used throughout the entire STARTUP-calculation: 10.4 MB


           ************************************************************
           *        Program running with 4 parallel MPI-processes     *
           *              working on a common directory               *
           ************************************************************
-------------------------------------------------------------------------------
                                 ORCA GUESS
                   Start orbitals & Density for SCF / CASSCF
-------------------------------------------------------------------------------

------------
SCF SETTINGS
------------
Hamiltonian:
 Density Functional     Method          .... DFT(GTOs)
 Exchange Functional    Exchange        .... PBE
   PBE kappa parameter   XKappa         ....  0.804000
   PBE mue parameter    XMuePBE         ....  0.219520
 Correlation Functional Correlation     .... PBE
   PBE beta parameter  CBetaPBE         ....  0.066725
 LDA part of GGA corr.  LDAOpt          .... PW91-LDA
 Gradients option       PostSCFGGA      .... off
   NL short-range parameter             ....  6.400000
 RI-approximation to the Coulomb term is turned on
   Number of AuxJ basis functions       .... 191


General Settings:
 Integral files         IntName         .... NEB-TS_with_guess
 Hartree-Fock type      HFTyp           .... RHF
 Total Charge           Charge          ....    0
 Multiplicity           Mult            ....    1
 Number of Electrons    NEL             ....   24
 Basis Dimension        Dim             ....   62
 Nuclear Repulsion      ENuc            ....     71.1420756205 Eh

Convergence Acceleration:
 AO-DIIS                CNVDIIS         .... on
   Start iteration      DIISMaxIt       ....    12
   Startup error        DIISStart       ....  0.200000
   # of expansion vecs  DIISMaxEq       ....     5
   Bias factor          DIISBfac        ....   1.050
   Max. coefficient     DIISMaxC        ....  10.000
 MO-DIIS                CNVKDIIS        .... off
 Trust-Rad. Augm. Hess. CNVTRAH         .... auto
   Auto Start mean grad. ratio tolernc. ....  1.125000
   Auto Start start iteration           ....     1
   Auto Start num. interpolation iter.  ....    10
   Max. Number of Micro iterations      ....    24
   Max. Number of Macro iterations      .... Maxiter - #DIIS iter
   Number of Davidson start vectors     ....     2
   Converg. threshold    (grad. norm)   ....   1.000e-05
   Grad. Scal. Fac. for Micro threshold ....   0.100
   Minimum threshold for Micro iter.    ....   1.000e-02
   NR start threshold (gradient norm)   ....   1.000e-04
   Initial trust radius                 ....   0.400
   Minimum AH scaling param. (alpha)    ....   1.000
   Maximum AH scaling param. (alpha)    .... 1000.000
   Quad. conv. algorithm                .... NR
   White noise on init. David. guess    .... on
   Maximum white noise                  ....   0.010
   Pseudo random numbers                .... off
   Inactive MOs                         .... canonical
   Orbital update algorithm             .... Taylor
   Preconditioner                       .... Diag
   Full preconditioner red. dimension   ....   250
 SOSCF                  CNVSOSCF        .... on
   Start iteration      SOSCFMaxIt      ....   150
   Startup grad/error   SOSCFStart      ....  0.003300
   Hessian update       SOSCFHessUp     .... L-BFGS
 Level Shifting         CNVShift        .... on
   Level shift para.    LevelShift      ....    0.2500
   Turn off err/grad.   ShiftErr        ....    0.0010
 Zerner damping         CNVZerner       .... off
 Static damping         CNVDamp         .... on
   Fraction old density DampFac         ....    0.7000
   Max. Damping (<1)    DampMax         ....    0.9800
   Min. Damping (>=0)   DampMin         ....    0.0000
   Turn off err/grad.   DampErr         ....    0.1000

SCF Procedure:
 Maximum # iterations   MaxIter         ....   125
 SCF integral mode      SCFMode         .... Direct
   Integral package                     .... SHARK and LIBINT hybrid scheme
 Reset frequency        DirectResetFreq ....    20
 Integral Threshold     Thresh          ....  2.500e-11 Eh
 Primitive CutOff       TCut            ....  2.500e-12 Eh

Convergence Tolerance:
 Convergence Check Mode ConvCheckMode   .... Total+1el-Energy
 Convergence forced     ConvForced      .... 0
 Energy Change          TolE            ....  1.000e-08 Eh
 1-El. energy change                    ....  1.000e-05 Eh
 Orbital Gradient       TolG            ....  1.000e-05
 Orbital Rotation angle TolX            ....  1.000e-05
 DIIS Error             TolErr          ....  5.000e-07

---------------------
INITIAL GUESS: MOREAD
---------------------
Guess MOs are being read from file: NEB-TS_with_guess.gbw
Input Geometry matches current geometry (good)
Input basis set matches current basis set (good)
Occupation numbers will be reassigned to an Aufbau configuration
MOs were renormalized
MOs were reorthogonalized (Cholesky)
                      ------------------
                      INITIAL GUESS DONE (   0.0 sec)
                      ------------------
             **** ENERGY FILE WAS UPDATED (NEB-TS_with_guess.en.tmp) ****
Finished Guess after   0.1 sec
Maximum memory used throughout the entire GUESS-calculation: 6.1 MB


           ************************************************************
           *        Program running with 4 parallel MPI-processes     *
           *              working on a common directory               *
           ************************************************************

-------------------------------------------------------------------------------------------
                                      ORCA LEAN-SCF
                              memory conserving SCF solver
-------------------------------------------------------------------------------------------

----------------------------------------D-I-I-S--------------------------------------------
Iteration    Energy (Eh)           Delta-E    RMSDP     MaxDP     DIISErr   Damp  Time(sec)
-------------------------------------------------------------------------------------------
               ***  Starting incremental Fock matrix formation  ***
                              *** Initializing SOSCF ***
---------------------------------------S-O-S-C-F--------------------------------------
Iteration    Energy (Eh)           Delta-E    RMSDP     MaxDP     MaxGrad    Time(sec)
--------------------------------------------------------------------------------------
    1    -153.4311494152236719     0.00e+00  1.28e-06  2.28e-05  2.03e-06     0.1
               *** Restarting incremental Fock matrix formation ***
    2    -153.4311494152776731    -5.40e-11  1.98e-06  3.04e-05  4.03e-06     0.1
    3    -153.4311494137251941     1.55e-09  1.37e-06  1.94e-05  9.79e-06     0.1
                 **** Energy Check signals convergence ****

               *****************************************************
               *                     SUCCESS                       *
               *           SCF CONVERGED AFTER   3 CYCLES          *
               *****************************************************

             **** ENERGY FILE WAS UPDATED (NEB-TS_with_guess.en.tmp) ****

----------------
TOTAL SCF ENERGY
----------------

Total Energy       :       -153.43114941372519 Eh           -4175.07383 eV

Components:
Nuclear Repulsion  :         71.14207562050956 Eh            1935.87430 eV
Electronic Energy  :       -224.57322503423475 Eh           -6110.94813 eV
One Electron Energy:       -348.64567413138661 Eh           -9487.13111 eV
Two Electron Energy:        124.07244909715186 Eh            3376.18298 eV

Virial components:
Potential Energy   :       -305.50458906954998 Eh           -8313.20250 eV
Kinetic Energy     :        152.07343965582481 Eh            4138.12867 eV
Virial Ratio       :          2.00892798743142

DFT components:
N(Alpha)           :       11.999997020274 electrons
N(Beta)            :       11.999997020274 electrons
N(Total)           :       23.999994040547 electrons
E(X)               :      -19.818485188070 Eh       
E(C)               :       -0.790112362984 Eh       
E(XC)              :      -20.608597551054 Eh       

---------------
SCF CONVERGENCE
---------------

  Last Energy change         ...   -1.5525e-09  Tolerance :   1.0000e-08
  Last MAX-Density change    ...    1.9403e-05  Tolerance :   1.0000e-07
  Last RMS-Density change    ...    1.3745e-06  Tolerance :   5.0000e-09
  Last DIIS Error            ...    9.8300e-06  Tolerance :   5.0000e-07
  Last Orbital Gradient      ...    9.7873e-06  Tolerance :   1.0000e-05
  Last Orbital Rotation      ...    1.7235e-05  Tolerance :   1.0000e-05


----------------
ORBITAL ENERGIES
----------------

  NO   OCC          E(Eh)            E(eV) 
   0   2.0000     -18.782827      -511.1067 
   1   2.0000      -9.992475      -271.9091 
   2   2.0000      -9.888165      -269.0706 
   3   2.0000      -0.967618       -26.3302 
   4   2.0000      -0.660404       -17.9705 
   5   2.0000      -0.537521       -14.6267 
   6   2.0000      -0.450988       -12.2720 
   7   2.0000      -0.403363       -10.9761 
   8   2.0000      -0.381015       -10.3679 
   9   2.0000      -0.339090        -9.2271 
  10   2.0000      -0.285958        -7.7813 
  11   2.0000      -0.197900        -5.3851 
  12   0.0000      -0.085665        -2.3311 
  13   0.0000       0.039048         1.0625 
  14   0.0000       0.061824         1.6823 
  15   0.0000       0.082350         2.2409 
  16   0.0000       0.116098         3.1592 
  17   0.0000       0.187967         5.1148 
  18   0.0000       0.253562         6.8998 
  19   0.0000       0.336196         9.1483 
  20   0.0000       0.375477        10.2173 
  21   0.0000       0.446168        12.1408 
  22   0.0000       0.468973        12.7614 
*Only the first 10 virtual orbitals were printed.
-------
TIMINGS
-------

Total SCF time: 0 days 0 hours 0 min 0 sec 

Total time                  ....       0.322 sec
Sum of individual times     ....       0.308 sec  ( 95.6%)

SCF preparation             ....       0.072 sec  ( 22.3%)
Fock matrix formation       ....       0.221 sec  ( 68.5%)
  Startup                   ....       0.002 sec  (  0.7% of F)
  Split-RI-J                ....       0.036 sec  ( 16.3% of F)
  XC integration            ....       0.178 sec  ( 80.8% of F)
    XC Preparation          ....       0.000 sec  (  0.0% of XC)
    Basis function eval.    ....       0.048 sec  ( 26.9% of XC)
    Density eval.           ....       0.020 sec  ( 11.4% of XC)
    XC-Functional eval.     ....       0.016 sec  (  8.9% of XC)
    XC-Potential eval.      ....       0.024 sec  ( 13.6% of XC)
Diagonalization             ....       0.000 sec  (  0.0%)
Density matrix formation    ....       0.002 sec  (  0.5%)
Total Energy calculation    ....       0.002 sec  (  0.6%)
Population analysis         ....       0.000 sec  (  0.0%)
Orbital Transformation      ....       0.003 sec  (  0.8%)
Orbital Orthonormalization  ....       0.000 sec  (  0.0%)
DIIS solution               ....       0.004 sec  (  1.1%)
SOSCF solution              ....       0.006 sec  (  1.9%)
Finished LeanSCF after   0.3 sec

Maximum memory used throughout the entire LEANSCF-calculation: 7.0 MB


-------------------------------------------------------------------------------
                          DFT DISPERSION CORRECTION                            
                                                                               
                              DFTD3 V3.1  Rev 1                                
                          USING Becke-Johnson damping                          
-------------------------------------------------------------------------------
The PBE functional is recognized
Active option DFTDOPT                   ...         4   

molecular C6(AA) [au] = 412.657143 


            DFT-D V3
 parameters
 s6 scaling factor         :     1.0000 
 a1 scaling factor         :     0.4289 
 s8 scaling factor         :     0.7875 
 a2 scaling factor         :     4.4407 
 ad hoc parameters k1-k3   :    16.0000     1.3333    -4.0000 

 Edisp/kcal,au: -2.121665959612  -0.003381089563 
 E6   /kcal   :  -1.531813674 
 E8   /kcal   :  -0.589852286 
 % E8         :  27.801373883 

-------------------------   ----------------
Dispersion correction           -0.003381090
-------------------------   ----------------


-------------------------   --------------------
FINAL SINGLE POINT ENERGY      -153.434530503288
-------------------------   --------------------



           ************************************************************
           *        Program running with 4 parallel MPI-processes     *
           *              working on a common directory               *
           ************************************************************
------------------------------------------------------------------------------
                         ORCA SCF GRADIENT CALCULATION
------------------------------------------------------------------------------

Nuc. rep. gradient        (SHARK) ... done (  0.0 sec)
HCore & Overlap gradient  (SHARK) ... done (  0.0 sec)
Split-RIJ-J gradient      (SHARK) ... done (  0.1 sec)
XC gradient                       ... done (  0.3 sec)
Dispersion correction             ... done (  0.0 sec)

-------------------
DISPERSION GRADIENT
-------------------

   1   C   :    0.000026262    0.000041686    0.000017608
   2   C   :    0.000045250    0.000055085    0.000028687
   3   H   :    0.000045668   -0.000043463    0.000026765
   4   H   :   -0.000157516   -0.000028860   -0.000016592
   5   H   :    0.000044131   -0.000072140   -0.000044746
   6   O   :    0.000082394    0.000035898    0.000012978
   7   H   :   -0.000086190    0.000011795   -0.000024700

Difference to translation invariance:
           :    0.0000000000    0.0000000000   -0.0000000000

Difference to rotation invariance:
           :   -0.0000000000   -0.0000000000    0.0000000000

Norm of the Dispersion gradient    ...    0.0002546179
RMS gradient                       ...    0.0000555622
MAX gradient                       ...    0.0001575156

------------------
CARTESIAN GRADIENT
------------------

   1   C   :   -0.000411364    0.000509474    0.000422805
   2   C   :    0.000624441    0.001049436    0.000623317
   3   H   :   -0.000624654   -0.000473769    0.000189826
   4   H   :    0.001070333   -0.001952059   -0.001482240
   5   H   :    0.000377068    0.000877503    0.000161692
   6   O   :   -0.000872453    0.000316940   -0.000030021
   7   H   :   -0.000163369   -0.000327525    0.000114622

Difference to translation invariance:
           :   -0.0000000000    0.0000000000   -0.0000000000

Difference to rotation invariance:
           :   -0.0000085931    0.0000384337    0.0000411214

Norm of the Cartesian gradient     ...    0.0034984488
RMS gradient                       ...    0.0007634241
MAX gradient                       ...    0.0019520593

-------
TIMINGS
-------

Total SCF gradient time     ....        0.410 sec

Densities                   ....       0.000 sec  (  0.0%)
One electron gradient       ....       0.009 sec  (  2.1%)
RI-J Coulomb gradient       ....       0.109 sec  ( 26.6%)
XC gradient                 ....       0.251 sec  ( 61.3%)

Maximum memory used throughout the entire SCFGRAD-calculation: 25.9 MB
------------------------------------------------------------------------------
                         ORCA GEOMETRY RELAXATION STEP
------------------------------------------------------------------------------

Reading the OPT-File                    .... done
Getting information on internals        .... done
Copying old internal coords+grads       .... done
Making the new internal coordinates     .... (2022 redundants) done
Validating the new internal coordinates .... (2022 redundants) done
Calculating the B-matrix                .... done
Calculating the G,G- and P matrices     .... done
Transforming gradient to internals      .... done
Projecting the internal gradient        .... done
Number of atoms                         ....   7
Number of internal coordinates          ....  22
Current Energy                          ....  -153.434530503 Eh
Current gradient norm                   ....     0.003498449 Eh/bohr
Maximum allowed component of the step   ....  0.300
Current trust radius                    ....  0.100
Evaluating the initial hessian          ....  (read) 
(Reading Exact Hessian)...  
InHessName: NEB-TS_with_guess.appr.hess	The file <NEB-TS_with_guess.appr.hess> is opened as a .hess file
done
done
Projecting the Hessian                  .... done
Diagonalizing the Hessian               .... done
Dimension of the hessian                ....  22
Lowest eigenvalues of the Hessian:
 -0.081036267  0.015034850  0.029145598  0.040786665  0.052329480
Hessian has   1 negative eigenvalues
Taking P-RFO step
Searching for lambda that maximizes along the lowest mode
TS mode is mode number   0 with eigenvalue  -0.08103627 and components:
   1.    0.11777456
   2.    0.01842184
   3.   -0.55221460
   4.    0.05727455
   5.    0.01504859
   6.    0.66829158
   7.   -0.00971658
   8.   -0.13577813
   9.    0.01588854
  10.   -0.02498345
  11.    0.02361193
  12.    0.00042831
  13.   -0.04292320
  14.   -0.01256455
  15.   -0.03672900
  16.   -0.14156188
  17.    0.27696980
  18.    0.11881128
  19.    0.08946561
  20.    0.24762412
  21.    0.12935617
  22.    0.10242875

Lambda that maximizes along the TS mode:       0.00009523
Searching for lambda that minimizes along all other modes
In cycle   1: lambdaN =  -0.00001494   step =   0.00001494
In cycle   2: lambdaN =  -0.00001494   step =   0.00000000
Lambda that minimizes along all other modes:  -0.00001494
The final length of the internal step   ....       0.0373
Converting the step to Cartesian space:
 Initial RMS(Int)=    0.0079439570
Transforming coordinates:
 Iter   0:  RMS(Cart)=    0.0054327808 RMS(Int)=    0.0079440956
done
Storing new coordinates                 .... done

                                .--------------------.
          ----------------------|Geometry convergence|-------------------------
          Item                value                   Tolerance       Converged
          ---------------------------------------------------------------------
          RMS gradient        0.0006736904            0.0001000000      NO
          MAX gradient        0.0017980360            0.0003000000      NO
          RMS step            0.0079439570            0.0020000000      NO
          MAX step            0.0262937419            0.0040000000      NO
          ........................................................
          Max(Bonds)      0.0139      Max(Angles)    0.25
          Max(Dihed)        0.62      Max(Improp)    0.00
          ---------------------------------------------------------------------

The optimization has not yet converged - more geometry cycles are needed


    ---------------------------------------------------------------------------
                         Redundant Internal Coordinates
                            (Angstroem and degrees)

        Definition                    Value    dE/dq     Step     New-Value  comp.(TS mode)
    ----------------------------------------------------------------------------
     1. B(C   1,C   0)                1.4152  0.000414  0.0020    1.4172   
     2. B(H   2,C   1)                1.1086  0.000134  0.0003    1.1088   
     3. B(H   3,C   1)                1.5063 -0.001798 -0.0102    1.4961          0.55
     4. B(H   3,C   0)                1.5937  0.000061  0.0028    1.5965   
     5. B(H   4,C   1)                1.1022 -0.000634  0.0010    1.1032   
     6. B(O   5,H   3)                1.2997  0.001420  0.0139    1.3136          0.67
     7. B(O   5,C   1)                2.2334 -0.000282  0.0005    2.2339   
     8. B(O   5,C   0)                1.2907 -0.000157 -0.0023    1.2884   
     9. B(H   6,C   0)                1.1125  0.000151  0.0001    1.1127   
    10. A(C   1,C   0,H   6)          129.78  0.000002   -0.06    129.72   
    11. A(O   5,C   0,H   6)          119.01  0.000344    0.00    119.02   
    12. A(C   1,C   0,O   5)          111.17 -0.000350    0.05    111.22   
    13. A(H   2,C   1,H   4)          113.69  0.000088   -0.20    113.49   
    14. A(C   0,C   1,H   4)          123.28  0.000468   -0.14    123.14   
    15. A(C   0,C   1,H   2)          112.06 -0.000636   -0.07    111.99   
    16. A(C   0,O   5,H   3)           75.94 -0.000374   -0.25     75.69   
    17. D(H   2,C   1,C   0,O   5)     63.39  0.000790    0.62     64.00          0.28
    18. D(H   4,C   1,C   0,O   5)   -154.93  0.000653   -0.08   -155.02   
    19. D(H   4,C   1,C   0,H   6)     22.87  0.000531   -0.24     22.63   
    20. D(H   2,C   1,C   0,H   6)   -118.81  0.000668    0.46   -118.35   
    21. D(H   3,O   5,C   0,H   6)   -167.45  0.000837   -0.09   -167.54   
    22. D(H   3,O   5,C   0,C   1)     10.62  0.000724   -0.23     10.39   
    ----------------------------------------------------------------------------

Geometry step timings:
Preparation and reading OPT file:      0.000 s ( 3.176 %)
Internal coordinates            :      0.000 s ( 0.723 %)
B/P matrices and projection     :      0.000 s ( 3.613 %)
Hessian update/contruction      :      0.005 s (83.496 %)
Making the step                 :      0.000 s ( 2.958 %)
Converting the step to Cartesian:      0.000 s ( 0.588 %)
Storing new data                :      0.000 s ( 0.437 %)
Checking convergence            :      0.000 s ( 0.034 %)
Final printing                  :      0.000 s ( 4.924 %)
Total time                      :      0.006 s

Time for energy+gradient        :      1.535 s
Time for complete geometry iter :      1.668 s

         *************************************************************
         *                GEOMETRY OPTIMIZATION CYCLE   2            *
         *************************************************************
---------------------------------
CARTESIAN COORDINATES (ANGSTROEM)
---------------------------------
  C     -0.663828    0.280556   -0.096294
  C      0.510047   -0.510181   -0.168306
  H      0.835860   -0.861608    0.831621
  H      0.743774    0.859869    0.385370
  H      0.696439   -1.240924   -0.973527
  O     -0.454867    1.366457    0.564950
  H     -1.667425    0.105832   -0.543814

----------------------------
CARTESIAN COORDINATES (A.U.)
----------------------------
  NO LB      ZA    FRAG     MASS         X           Y           Z
   0 C     6.0000    0    12.011   -1.254453    0.530173   -0.181968
   1 C     6.0000    0    12.011    0.963849   -0.964103   -0.318052
   2 H     1.0000    0     1.008    1.579547   -1.628204    1.571535
   3 H     1.0000    0     1.008    1.405529    1.624917    0.728244
   4 H     1.0000    0     1.008    1.316078   -2.345006   -1.839699
   5 O     8.0000    0    15.999   -0.859574    2.582229    1.067600
   6 H     1.0000    0     1.008   -3.150976    0.199993   -1.027660

--------------------------------
INTERNAL COORDINATES (ANGSTROEM)
--------------------------------
 C      0   0   0     0.000000000000     0.00000000     0.00000000
 C      1   0   0     1.417191896609     0.00000000     0.00000000
 H      2   1   0     1.108832072729   111.98727224     0.00000000
 H      2   1   3     1.496069325763    66.39918655   286.35739086
 H      2   1   3     1.103225557990   123.13459400   140.98016513
 O      1   2   3     1.288444337995   111.22251606    64.00318035
 H      1   2   3     1.112658533676   129.72208745   241.64718120

---------------------------
INTERNAL COORDINATES (A.U.)
---------------------------
 C      0   0   0     0.000000000000     0.00000000     0.00000000
 C      1   0   0     2.678104563803     0.00000000     0.00000000
 H      2   1   0     2.095388945966   111.98727224     0.00000000
 H      2   1   3     2.827161303053    66.39918655   286.35739086
 H      2   1   3     2.084794168544   123.13459400   140.98016513
 O      1   2   3     2.434806937612   111.22251606    64.00318035
 H      1   2   3     2.102619909218   129.72208745   241.64718120



           ************************************************************
           *        Program running with 4 parallel MPI-processes     *
           *              working on a common directory               *
           ************************************************************
------------------------------------------------------------------------------
                   ___                                                        
                  /   \      - P O W E R E D   B Y -                         
                 /     \                                                     
                 |  |  |   _    _      __       _____    __    __             
                 |  |  |  | |  | |    /  \     |  _  \  |  |  /  |          
                  \  \/   | |  | |   /    \    | | | |  |  | /  /          
                 / \  \   | |__| |  /  /\  \   | |_| |  |  |/  /          
                |  |  |   |  __  | /  /__\  \  |    /   |      \           
                |  |  |   | |  | | |   __   |  |    \   |  |\   \          
                \     /   | |  | | |  |  |  |  | |\  \  |  | \   \       
                 \___/    |_|  |_| |__|  |__|  |_| \__\ |__|  \__/        
                                                                              
                      - O R C A' S   B I G   F R I E N D -                    
                                      &                                       
                       - I N T E G R A L  F E E D E R -                       
                                                                              
 v1 FN, 2020, v2 2021, v3 2022-2024                                           
------------------------------------------------------------------------------


----------------------
SHARK INTEGRAL PACKAGE
----------------------

Number of atoms                             ...      7
Number of basis functions                   ...     62
Number of shells                            ...     30
Maximum angular momentum                    ...      2
Integral batch strategy                     ... SHARK/LIBINT Hybrid
RI-J (if used) integral strategy            ... SPLIT-RIJ (Revised 2003 algorithm where possible)
Printlevel                                  ...      1
Contraction scheme used                     ... SEGMENTED contraction
Prescreening option                         ... SCHWARTZ
   Thresh                                   ... 2.500e-11
   Tcut                                     ... 2.500e-12
   Tpresel                                  ... 2.500e-12 
Coulomb Range Separation                    ... NOT USED
Exchange Range Separation                   ... NOT USED
Multipole approximations                    ... NOT USED
Finite Nucleus Model                        ... NOT USED
CABS basis                                  ... NOT available
Auxiliary Coulomb fitting basis             ... AVAILABLE
   # of basis functions in Aux-J            ...    191
   # of shells in Aux-J                     ...     65
   Maximum angular momentum in Aux-J        ...      4
Auxiliary J/K fitting basis                 ... NOT available
Auxiliary Correlation fitting basis         ... NOT available
Auxiliary 'external' fitting basis          ... NOT available

Checking pre-screening integrals            ... done (  0.0 sec) Dimension = 30
Check shell pair data                       ... done (  0.0 sec)
Shell pair information
Shell pair cut-off parameter TPreSel        ...   2.5e-12
Total number of shell pairs                 ...       465
Shell pairs after pre-screening             ...       464
Total number of primitive shell pairs       ...      1647
Primitive shell pairs kept                  ...      1432
          la=0 lb=0:    152 shell pairs
          la=1 lb=0:    170 shell pairs
          la=1 lb=1:     55 shell pairs
          la=2 lb=0:     51 shell pairs
          la=2 lb=1:     30 shell pairs
          la=2 lb=2:      6 shell pairs

Calculating one electron integrals          ... done (  0.0 sec)
Calculating RI/J V-Matrix + Cholesky decomp.... done (  0.0 sec)
Calculating Nuclear repulsion               ... done (  0.0 sec) ENN=     71.125399405899 Eh

Diagonalization of the overlap matrix:
Smallest eigenvalue                        ... 4.026e-03
Time for diagonalization                   ...    0.001 sec
Threshold for overlap eigenvalues          ... 1.000e-07
Number of eigenvalues below threshold      ... 0
Time for construction of square roots      ...    0.000 sec
Total time needed                          ...    0.001 sec

-------------------
DFT GRID GENERATION
-------------------

General Integration Accuracy     IntAcc      ... 4.388
Radial Grid Type                 RadialGrid  ... OptM3 with GC (2021)
Angular Grid (max. ang.)         AngularGrid ... 4 (Lebedev-302)
Angular grid pruning method      GridPruning ... 4 (adaptive)
Weight generation scheme         WeightScheme... mBecke (2022)
Basis function cutoff            BFCut       ... 1.0000e-11
Integration weight cutoff        WCut        ... 1.0000e-14
Partially contracted basis set               ... off
Rotationally invariant grid construction     ... off
Angular grids for H and He will be reduced by one unit

Total number of grid points                  ...    31357
Total number of batches                      ...      494
Average number of points per batch           ...       63
Average number of grid points per atom       ...     4480
Initializing property integral containers    ... done (  0.0 sec)

SHARK setup successfully completed in   0.2 seconds

Maximum memory used throughout the entire STARTUP-calculation: 10.4 MB


           ************************************************************
           *        Program running with 4 parallel MPI-processes     *
           *              working on a common directory               *
           ************************************************************
Occupation numbers will be reassigned to an Aufbau configuration
             **** ENERGY FILE WAS UPDATED (NEB-TS_with_guess.en.tmp) ****
Finished Guess after   0.1 sec
Maximum memory used throughout the entire GUESS-calculation: 6.1 MB


           ************************************************************
           *        Program running with 4 parallel MPI-processes     *
           *              working on a common directory               *
           ************************************************************
----------------------------------------D-I-I-S--------------------------------------------
Iteration    Energy (Eh)           Delta-E    RMSDP     MaxDP     DIISErr   Damp  Time(sec)
-------------------------------------------------------------------------------------------
               ***  Starting incremental Fock matrix formation  ***
                              *** Initializing SOSCF ***
---------------------------------------S-O-S-C-F--------------------------------------
Iteration    Energy (Eh)           Delta-E    RMSDP     MaxDP     MaxGrad    Time(sec)
--------------------------------------------------------------------------------------
    1    -153.4310047708910929     0.00e+00  4.63e-04  6.72e-03  1.36e-03     0.1
               *** Restarting incremental Fock matrix formation ***
    2    -153.4311090029454476    -1.04e-04  5.50e-04  5.98e-03  1.04e-03     0.1
    3    -153.4310946810573455     1.43e-05  3.70e-04  4.93e-03  1.83e-03     0.1
    4    -153.4311261594646680    -3.15e-05  4.27e-04  4.92e-03  1.03e-03     0.1
    5    -153.4311369025642762    -1.07e-05  1.40e-04  1.44e-03  5.15e-04     0.1
    6    -153.4311390117626956    -2.11e-06  1.00e-04  1.00e-03  3.52e-04     0.1
    7    -153.4311407382932657    -1.73e-06  6.43e-05  7.18e-04  1.63e-04     0.1
    8    -153.4311411848009925    -4.47e-07  2.07e-05  2.47e-04  6.45e-05     0.1
    9    -153.4311412907628664    -1.06e-07  1.19e-05  1.27e-04  2.89e-05     0.1
   10    -153.4311413146496648    -2.39e-08  3.85e-06  3.45e-05  1.09e-05     0.1
   11    -153.4311413175869916    -2.94e-09  1.93e-06  2.20e-05  4.37e-06     0.1
                 **** Energy Check signals convergence ****

               *****************************************************
               *                     SUCCESS                       *
               *           SCF CONVERGED AFTER  11 CYCLES          *
               *****************************************************

             **** ENERGY FILE WAS UPDATED (NEB-TS_with_guess.en.tmp) ****

----------------
TOTAL SCF ENERGY
----------------

Total Energy       :       -153.43114131758699 Eh           -4175.07361 eV

Components:
Nuclear Repulsion  :         71.12539940589902 Eh            1935.42051 eV
Electronic Energy  :       -224.55654072348599 Eh           -6110.49412 eV
One Electron Energy:       -348.61529537559329 Eh           -9486.30446 eV
Two Electron Energy:        124.05875465210730 Eh            3375.81034 eV

Virial components:
Potential Energy   :       -305.50217371050468 Eh           -8313.13678 eV
Kinetic Energy     :        152.07103239291769 Eh            4138.06317 eV
Virial Ratio       :          2.00894390537940

DFT components:
N(Alpha)           :       11.999997585301 electrons
N(Beta)            :       11.999997585301 electrons
N(Total)           :       23.999995170602 electrons
E(X)               :      -19.817548690049 Eh       
E(C)               :       -0.790014654810 Eh       
E(XC)              :      -20.607563344859 Eh       

---------------
SCF CONVERGENCE
---------------

  Last Energy change         ...    2.9373e-09  Tolerance :   1.0000e-08
  Last MAX-Density change    ...    2.2007e-05  Tolerance :   1.0000e-07
  Last RMS-Density change    ...    1.9312e-06  Tolerance :   5.0000e-09
  Last DIIS Error            ...    2.7053e-03  Tolerance :   5.0000e-07
  Last Orbital Gradient      ...    4.3739e-06  Tolerance :   1.0000e-05
  Last Orbital Rotation      ...    2.4136e-05  Tolerance :   1.0000e-05


Total SCF time: 0 days 0 hours 0 min 0 sec 
Finished LeanSCF after   1.0 sec

Maximum memory used throughout the entire LEANSCF-calculation: 7.1 MB


-------------------------------------------------------------------------------
                          DFT DISPERSION CORRECTION                            
                                                                               
                              DFTD3 V3.1  Rev 1                                
                          USING Becke-Johnson damping                          
-------------------------------------------------------------------------------
-------------------------   ----------------
Dispersion correction           -0.003386190
-------------------------   ----------------


-------------------------   --------------------
FINAL SINGLE POINT ENERGY      -153.434527507506
-------------------------   --------------------



           ************************************************************
           *        Program running with 4 parallel MPI-processes     *
           *              working on a common directory               *
           ************************************************************
------------------------------------------------------------------------------
                         ORCA SCF GRADIENT CALCULATION
------------------------------------------------------------------------------

Nuc. rep. gradient        (SHARK) ... done (  0.0 sec)
HCore & Overlap gradient  (SHARK) ... done (  0.0 sec)
Split-RIJ-J gradient      (SHARK) ... done (  0.2 sec)
XC gradient                       ... done (  0.3 sec)
Dispersion correction             ... done (  0.0 sec)

-------------------
DISPERSION GRADIENT
-------------------

   1   C   :    0.000031334    0.000043431    0.000019133
   2   C   :    0.000048589    0.000072024    0.000035560
   3   H   :    0.000045875   -0.000043854    0.000026822
   4   H   :   -0.000173724   -0.000043917   -0.000023907
   5   H   :    0.000044328   -0.000072246   -0.000044831
   6   O   :    0.000089969    0.000032923    0.000011952
   7   H   :   -0.000086370    0.000011640   -0.000024730

Difference to translation invariance:
           :   -0.0000000000    0.0000000000    0.0000000000

Difference to rotation invariance:
           :    0.0000000000   -0.0000000000   -0.0000000000

Norm of the Dispersion gradient    ...    0.0002760374
RMS gradient                       ...    0.0000602363
MAX gradient                       ...    0.0001737240

------------------
CARTESIAN GRADIENT
------------------

   1   C   :    0.000048346   -0.001152535   -0.000580040
   2   C   :   -0.000503985   -0.000544704   -0.000555671
   3   H   :    0.000176567    0.000239541    0.000130929
   4   H   :   -0.001424538    0.001165900    0.000716985
   5   H   :   -0.000116650    0.000035101    0.000047757
   6   O   :    0.001778249    0.000279986    0.000310382
   7   H   :    0.000042010   -0.000023289   -0.000070343

Difference to translation invariance:
           :    0.0000000000   -0.0000000000   -0.0000000000

Difference to rotation invariance:
           :   -0.0000112639    0.0000371449    0.0000336947

Norm of the Cartesian gradient     ...    0.0031458331
RMS gradient                       ...    0.0006864771
MAX gradient                       ...    0.0017782492

-------
TIMINGS
-------

Total SCF gradient time     ....        0.478 sec

Densities                   ....       0.000 sec  (  0.0%)
One electron gradient       ....       0.013 sec  (  2.8%)
RI-J Coulomb gradient       ....       0.159 sec  ( 33.2%)
XC gradient                 ....       0.260 sec  ( 54.3%)

Maximum memory used throughout the entire SCFGRAD-calculation: 25.9 MB
------------------------------------------------------------------------------
                         ORCA GEOMETRY RELAXATION STEP
------------------------------------------------------------------------------

Reading the OPT-File                    .... done
Getting information on internals        .... done
Copying old internal coords+grads       .... done
Making the new internal coordinates     .... (2022 redundants) done
Validating the new internal coordinates .... (2022 redundants) done
Calculating the B-matrix                .... done
Calculating the G,G- and P matrices     .... done
Transforming gradient to internals      .... done
Projecting the internal gradient        .... done
Number of atoms                         ....   7
Number of internal coordinates          ....  22
Current Energy                          ....  -153.434527508 Eh
Current gradient norm                   ....     0.003145833 Eh/bohr
Maximum allowed component of the step   ....  0.300
Current trust radius                    ....  0.100
Updating the Hessian (Bofill)           .... done
Diagonalizing the Hessian               .... done
Dimension of the hessian                ....  22
Lowest eigenvalues of the Hessian:
 -0.137779495  0.015792628  0.029178833  0.041204001  0.056253678
Hessian has   1 negative eigenvalues
Taking P-RFO step
Searching for lambda that maximizes along the lowest mode
TS mode is mode number   0 with eigenvalue  -0.13777950 and components:
   1.   -0.12762343
   2.   -0.01256097
   3.    0.53050493
   4.   -0.07771270
   5.   -0.01516459
   6.   -0.70053951
   7.    0.00368914
   8.    0.15867331
   9.   -0.01499171
  10.    0.02474246
  11.   -0.01240952
  12.   -0.01163962
  13.    0.04626502
  14.    0.00577086
  15.    0.03773063
  16.    0.13472868
  17.   -0.24407079
  18.   -0.09106954
  19.   -0.07193895
  20.   -0.22494020
  21.   -0.13779662
  22.   -0.12000966

Lambda that maximizes along the TS mode:       0.00002912
Searching for lambda that minimizes along all other modes
In cycle   1: lambdaN =  -0.00000443   step =   0.00000443
In cycle   2: lambdaN =  -0.00000443   step =   0.00000000
Lambda that minimizes along all other modes:  -0.00000443
The final length of the internal step   ....       0.0167
Converting the step to Cartesian space:
 Initial RMS(Int)=    0.0035541419
Transforming coordinates:
 Iter   0:  RMS(Cart)=    0.0030422313 RMS(Int)=    0.0035547665
done
Storing new coordinates                 .... done
The predicted energy change is          ....     0.000012347
Previously predicted energy change      ....     0.000040198
Actually observed energy change         ....     0.000002996
Ratio of predicted to observed change   ....     0.074525839
New trust radius                        ....     0.100000000

                                .--------------------.
          ----------------------|Geometry convergence|-------------------------
          Item                value                   Tolerance       Converged
          ---------------------------------------------------------------------
          Energy change       0.0000029958            0.0000050000      YES
          RMS gradient        0.0004807195            0.0001000000      NO
          MAX gradient        0.0015767045            0.0003000000      NO
          RMS step            0.0035541419            0.0020000000      NO
          MAX step            0.0097044445            0.0040000000      NO
          ........................................................
          Max(Bonds)      0.0051      Max(Angles)    0.14
          Max(Dihed)        0.42      Max(Improp)    0.00
          ---------------------------------------------------------------------

The optimization has not yet converged - more geometry cycles are needed


    ---------------------------------------------------------------------------
                         Redundant Internal Coordinates
                            (Angstroem and degrees)

        Definition                    Value    dE/dq     Step     New-Value  comp.(TS mode)
    ----------------------------------------------------------------------------
     1. B(C   1,C   0)                1.4172 -0.000541 -0.0007    1.4164   
     2. B(H   2,C   1)                1.1088  0.000095 -0.0002    1.1086   
     3. B(H   3,C   1)                1.4961  0.000765  0.0051    1.5012          0.53
     4. B(H   3,C   0)                1.5965 -0.000113  0.0005    1.5971   
     5. B(H   4,C   1)                1.1032 -0.000078 -0.0002    1.1030   
     6. B(O   5,H   3)                1.3136 -0.001577 -0.0039    1.3097          0.70
     7. B(O   5,C   1)                2.2339  0.000042  0.0001    2.2341   
     8. B(O   5,C   0)                1.2884  0.001083  0.0007    1.2891   
     9. B(H   6,C   0)                1.1127 -0.000006 -0.0001    1.1125   
    10. A(C   1,C   0,H   6)          129.72  0.000057    0.03    129.75   
    11. A(O   5,C   0,H   6)          119.02  0.000201   -0.04    118.98   
    12. A(C   1,C   0,O   5)          111.22 -0.000260    0.01    111.24   
    13. A(H   2,C   1,H   4)          113.49  0.000132    0.04    113.53   
    14. A(C   0,C   1,H   4)          123.13 -0.000086    0.04    123.17   
    15. A(C   0,C   1,H   2)          111.99  0.000036    0.03    112.02   
    16. A(C   0,O   5,H   3)           75.69  0.000111    0.14     75.83   
    17. D(H   2,C   1,C   0,O   5)     64.00 -0.000240   -0.42     63.58   
    18. D(H   4,C   1,C   0,O   5)   -155.02 -0.000061   -0.25   -155.26   
    19. D(H   4,C   1,C   0,H   6)     22.63 -0.000102   -0.15     22.47   
    20. D(H   2,C   1,C   0,H   6)   -118.35 -0.000282   -0.33   -118.68   
    21. D(H   3,O   5,C   0,H   6)   -167.54 -0.000309    0.01   -167.53   
    22. D(H   3,O   5,C   0,C   1)     10.39 -0.000347    0.09     10.48   
    ----------------------------------------------------------------------------

Geometry step timings:
Preparation and reading OPT file:      0.000 s (12.453 %)
Internal coordinates            :      0.000 s ( 2.642 %)
B/P matrices and projection     :      0.000 s (16.321 %)
Hessian update/contruction      :      0.000 s (13.962 %)
Making the step                 :      0.000 s (17.075 %)
Converting the step to Cartesian:      0.000 s ( 2.830 %)
[...]
   Maximum AH scaling param. (alpha)    .... 1000.000
   Quad. conv. algorithm                .... NR
   White noise on init. David. guess    .... on
   Maximum white noise                  ....   0.010
   Pseudo random numbers                .... off
   Inactive MOs                         .... canonical
   Orbital update algorithm             .... Taylor
   Preconditioner                       .... Diag
   Full preconditioner red. dimension   ....   250
 SOSCF                  CNVSOSCF        .... on
   Start iteration      SOSCFMaxIt      ....   150
   Startup grad/error   SOSCFStart      ....  0.003300
   Hessian update       SOSCFHessUp     .... L-BFGS
 Level Shifting         CNVShift        .... on
   Level shift para.    LevelShift      ....    0.2500
   Turn off err/grad.   ShiftErr        ....    0.0010
 Zerner damping         CNVZerner       .... off
 Static damping         CNVDamp         .... on
   Fraction old density DampFac         ....    0.7000
   Max. Damping (<1)    DampMax         ....    0.9800
   Min. Damping (>=0)   DampMin         ....    0.0000
   Turn off err/grad.   DampErr         ....    0.1000

SCF Procedure:
 Maximum # iterations   MaxIter         ....   125
 SCF integral mode      SCFMode         .... Direct
   Integral package                     .... SHARK and LIBINT hybrid scheme
 Reset frequency        DirectResetFreq ....    20
 Integral Threshold     Thresh          ....  2.500e-11 Eh
 Primitive CutOff       TCut            ....  2.500e-12 Eh

Convergence Tolerance:
 Convergence Check Mode ConvCheckMode   .... Total+1el-Energy
 Convergence forced     ConvForced      .... 0
 Energy Change          TolE            ....  1.000e-08 Eh
 1-El. energy change                    ....  1.000e-05 Eh
 Orbital Gradient       TolG            ....  1.000e-05
 Orbital Rotation angle TolX            ....  1.000e-05
 DIIS Error             TolErr          ....  5.000e-07

---------------------
INITIAL GUESS: MOREAD
---------------------
Guess MOs are being read from file: NEB-TS_with_guess.gbw
Input Geometry matches current geometry (good)
Input basis set matches current basis set (good)
Occupation numbers will be reassigned to an Aufbau configuration
MOs were renormalized
MOs were reorthogonalized (Cholesky)
                      ------------------
                      INITIAL GUESS DONE (   0.0 sec)
                      ------------------
             **** ENERGY FILE WAS UPDATED (NEB-TS_with_guess.en.tmp) ****
Finished Guess after   0.1 sec
Maximum memory used throughout the entire GUESS-calculation: 6.1 MB


           ************************************************************
           *        Program running with 4 parallel MPI-processes     *
           *              working on a common directory               *
           ************************************************************

-------------------------------------------------------------------------------------------
                                      ORCA LEAN-SCF
                              memory conserving SCF solver
-------------------------------------------------------------------------------------------

----------------------------------------D-I-I-S--------------------------------------------
Iteration    Energy (Eh)           Delta-E    RMSDP     MaxDP     DIISErr   Damp  Time(sec)
-------------------------------------------------------------------------------------------
               ***  Starting incremental Fock matrix formation  ***
                              *** Initializing SOSCF ***
---------------------------------------S-O-S-C-F--------------------------------------
Iteration    Energy (Eh)           Delta-E    RMSDP     MaxDP     MaxGrad    Time(sec)
--------------------------------------------------------------------------------------
    1    -153.4311305686240132     0.00e+00  1.61e-05  1.56e-04  1.85e-05     0.1
               *** Restarting incremental Fock matrix formation ***
    2    -153.4311306538388919    -8.52e-08  2.31e-05  3.57e-04  5.00e-05     0.1
    3    -153.4311303304855585     3.23e-07  1.84e-05  2.61e-04  1.67e-04     0.1
    4    -153.4311306910738892    -3.61e-07  1.81e-06  1.63e-05  3.35e-06     0.1
    5    -153.4311306907052881     3.69e-10  1.11e-06  1.38e-05  6.64e-06     0.1
                 **** Energy Check signals convergence ****

               *****************************************************
               *                     SUCCESS                       *
               *           SCF CONVERGED AFTER   5 CYCLES          *
               *****************************************************

             **** ENERGY FILE WAS UPDATED (NEB-TS_with_guess.en.tmp) ****

----------------
TOTAL SCF ENERGY
----------------

Total Energy       :       -153.43113069070529 Eh           -4175.07332 eV

Components:
Nuclear Repulsion  :         71.12455423544901 Eh            1935.39751 eV
Electronic Energy  :       -224.55568492615430 Eh           -6110.47084 eV
One Electron Energy:       -348.61344216030204 Eh           -9486.25403 eV
Two Electron Energy:        124.05775723414774 Eh            3375.78320 eV

Virial components:
Potential Energy   :       -305.50160345582060 Eh           -8313.12126 eV
Kinetic Energy     :        152.07047276511531 Eh            4138.04794 eV
Virial Ratio       :          2.00894754846782

DFT components:
N(Alpha)           :       11.999997334306 electrons
N(Beta)            :       11.999997334306 electrons
N(Total)           :       23.999994668612 electrons
E(X)               :      -19.817460457764 Eh       
E(C)               :       -0.790012959763 Eh       
E(XC)              :      -20.607473417527 Eh       

---------------
SCF CONVERGENCE
---------------

  Last Energy change         ...   -3.6860e-10  Tolerance :   1.0000e-08
  Last MAX-Density change    ...    1.3779e-05  Tolerance :   1.0000e-07
  Last RMS-Density change    ...    1.1077e-06  Tolerance :   5.0000e-09
  Last DIIS Error            ...    1.0697e-04  Tolerance :   5.0000e-07
  Last Orbital Gradient      ...    6.6415e-06  Tolerance :   1.0000e-05
  Last Orbital Rotation      ...    1.5986e-05  Tolerance :   1.0000e-05


----------------
ORBITAL ENERGIES
----------------

  NO   OCC          E(Eh)            E(eV) 
   0   2.0000     -18.782232      -511.0905 
   1   2.0000      -9.992615      -271.9129 
   2   2.0000      -9.888930      -269.0915 
   3   2.0000      -0.967046       -26.3147 
   4   2.0000      -0.660701       -17.9786 
   5   2.0000      -0.537104       -14.6153 
   6   2.0000      -0.451051       -12.2737 
   7   2.0000      -0.402979       -10.9656 
   8   2.0000      -0.380780       -10.3615 
   9   2.0000      -0.339278        -9.2322 
  10   2.0000      -0.284793        -7.7496 
  11   2.0000      -0.198764        -5.4086 
  12   0.0000      -0.085759        -2.3336 
  13   0.0000       0.037767         1.0277 
  14   0.0000       0.061645         1.6774 
  15   0.0000       0.081973         2.2306 
  16   0.0000       0.115757         3.1499 
  17   0.0000       0.188535         5.1303 
  18   0.0000       0.253136         6.8882 
  19   0.0000       0.335990         9.1428 
  20   0.0000       0.375192        10.2095 
  21   0.0000       0.446273        12.1437 
  22   0.0000       0.469447        12.7743 
*Only the first 10 virtual orbitals were printed.
-------
TIMINGS
-------

Total SCF time: 0 days 0 hours 0 min 0 sec 

Total time                  ....       0.493 sec
Sum of individual times     ....       0.476 sec  ( 96.6%)

SCF preparation             ....       0.083 sec  ( 16.8%)
Fock matrix formation       ....       0.370 sec  ( 75.1%)
  Startup                   ....       0.002 sec  (  0.6% of F)
  Split-RI-J                ....       0.067 sec  ( 18.2% of F)
  XC integration            ....       0.293 sec  ( 79.1% of F)
    XC Preparation          ....       0.000 sec  (  0.0% of XC)
    Basis function eval.    ....       0.080 sec  ( 27.3% of XC)
    Density eval.           ....       0.033 sec  ( 11.1% of XC)
    XC-Functional eval.     ....       0.027 sec  (  9.1% of XC)
    XC-Potential eval.      ....       0.036 sec  ( 12.3% of XC)
Diagonalization             ....       0.000 sec  (  0.0%)
Density matrix formation    ....       0.003 sec  (  0.6%)
Total Energy calculation    ....       0.003 sec  (  0.6%)
Population analysis         ....       0.000 sec  (  0.0%)
Orbital Transformation      ....       0.003 sec  (  0.5%)
Orbital Orthonormalization  ....       0.000 sec  (  0.0%)
DIIS solution               ....       0.004 sec  (  0.8%)
SOSCF solution              ....       0.011 sec  (  2.2%)
Finished LeanSCF after   0.5 sec

Maximum memory used throughout the entire LEANSCF-calculation: 7.4 MB


-------------------------------------------------------------------------------
                          DFT DISPERSION CORRECTION                            
                                                                               
                              DFTD3 V3.1  Rev 1                                
                          USING Becke-Johnson damping                          
-------------------------------------------------------------------------------
The PBE functional is recognized
Active option DFTDOPT                   ...         4   

molecular C6(AA) [au] = 413.547777 


            DFT-D V3
 parameters
 s6 scaling factor         :     1.0000 
 a1 scaling factor         :     0.4289 
 s8 scaling factor         :     0.7875 
 a2 scaling factor         :     4.4407 
 ad hoc parameters k1-k3   :    16.0000     1.3333    -4.0000 

 Edisp/kcal,au: -2.126616843918  -0.003388979298 
 E6   /kcal   :  -1.535451736 
 E8   /kcal   :  -0.591165108 
 % E8         :  27.798383607 

-------------------------   ----------------
Dispersion correction           -0.003388979
-------------------------   ----------------


-------------------------   --------------------
FINAL SINGLE POINT ENERGY      -153.434519670004
-------------------------   --------------------

                                *** OPTIMIZATION RUN DONE ***



                    ***********************HURRAY************************
                    ***        THE TS OPTIMIZATION HAS CONVERGED      ***
                    *****************************************************



---------------------------------------------------------------
                      PATH SUMMARY FOR NEB-TS             
---------------------------------------------------------------
All forces in Eh/Bohr. Global forces for TS.

Image     E(Eh)   dE(kcal/mol)  max(|Fp|)  RMS(Fp)
  0    -153.53120     0.00       0.00505   0.00313
  1    -153.49954    19.87       0.00166   0.00077
  2    -153.45559    47.44       0.00138   0.00056
  3    -153.43453    60.66       0.00032   0.00014 <= CI
 TS    -153.43452    60.67       0.00026   0.00010 <= TS
  4    -153.46175    43.58       0.00148   0.00058
  5    -153.49407    23.30       0.00119   0.00070
  6    -153.51375    10.95       0.01249   0.00448
----------
STATISTICS
----------

For the individual parts of the NEB, NEB-CI or NEB-TS run:

Number of iterations:
     NEB                               ... 13  72.2%
     TS optimization                   ... 5  27.8%
Number of SCF / gradient calculations:
     NEB                               ... 87  94.6%
     TS optimization                   ... 5  5.4%

----------
 TIMINGS
----------

For the individual parts of the NEB, NEB-CI or NEB-TS run:

Total                                  ...      114.467 sec
NEB                                    ...      105.083 sec  91.8%
TS Optimization                        ...        9.384 sec  8.2%



           ************************************************************
           *        Program running with 4 parallel MPI-processes     *
           *              working on a common directory               *
           ************************************************************

------------------------------------------------------------------------------
                              ORCA PROPERTY CALCULATIONS
------------------------------------------------------------------------------

GBWName                                 ... NEB-TS_with_guess.gbw
Number of atoms                         ...      7
Number of basis functions               ...     62
Max core memory                         ...    750 MB

Electric properties:
Dipole moment                           ... YES
Quadrupole moment                       ...  NO
Static polarizability (Dipole/Dipole)   ...  NO
Static polarizability (Dipole/Quad.)    ...  NO
Static polarizability (Quad./Quad.)     ...  NO
Static polarizability (Velocity)        ...  NO

Atomic electric properties:
Dipole moment                           ...  NO
Quadrupole moment                       ...  NO
Static polarizability                   ...  NO

Choice of electric origin               ... Center of mass
Position of electric origin             ...    -0.365227     0.768475     0.238667

General magnetic properties:
Magnetizability                         ...  NO

EPR properties:
g-Tensor (aka g-matrix)                 ...  NO
Zero-Field splitting spin-orbit         ...  NO
Zero-field splitting spin-spin          ...  NO
Hyperfine couplings                     ...  NO (   0 nuclei)
Quadrupole couplings                    ...  NO (   0 nuclei)
Contact density                         ...  NO (   0 nuclei)

NMR properties:
Chemical shifts                         ...  NO (   0 nuclei)
Spin-rotation constants                 ...  NO (   0 nuclei)
Spin-spin couplings                     ...  NO (   0 nuclei,    0 pairs)

Choice of magnetic origin               ... GIAO
Position of magnetic origin             ...     0.000000     0.000000     0.000000

Properties with geometric perturbations:
SCF Hessian                             ...  NO
IR spectrum                             ...  NO
VCD spectrum                            ...  NO
X-ray spectroscopy properties:
SCF XES/XAS/RIXS spectra                ...  NO


-------------
DIPOLE MOMENT
-------------

Method             : SCF
Type of density    : Electron Density
Multiplicity       :   1
Irrep              :   0
Energy             :  -153.4311306907052881 Eh
Relativity type    : 
Basis              : AO
                                X                 Y                 Z
Electronic contribution:     -1.452878435       2.081582079       0.589476465
Nuclear contribution   :      1.292631274      -2.575262892      -0.749081187
                        -----------------------------------------
Total Dipole Moment    :     -0.160247161      -0.493680813      -0.159604722
                        -----------------------------------------
Magnitude (a.u.)       :      0.543022619
Magnitude (Debye)      :      1.380253807



--------------------
Rotational spectrum 
--------------------
 
Rotational constants in cm-1:             1.612953             0.402936             0.335248 
Rotational constants in MHz :         48355.125222         12079.724789         10050.494203 

Dipole components along the rotational axes: 
x,y,z [a.u.] :    -0.394624    -0.336923     0.160087 
x,y,z [Debye]:    -1.003055    -0.856391     0.406909 

 

Dipole moment calculation done in   0.0 sec 

Maximum memory used throughout the entire PROP-calculation: 4.4 MB

--------------------------------
SUGGESTED CITATIONS FOR THIS RUN
--------------------------------

Below you find a list of papers that are relevant to this ORCA run
We neither can nor want to force you to cite these papers, but we appreciate if you do
You receive ORCA, which is the product of decades of hard work by many enthusiastic individuals, for free
The only thing we kindly ask in return is that you cite our papers,
We deeply appreciate it, if you show your appreciation for ORCA by not just citing the generic ORCA reference.

Please note that relegating all ORCA citations to the supporting information does *not* help us.
SI sections are not indexed - citations you put there will not count into any citation statistics
But we need these citations in order to attract the funding resources that allow us to do what we are doing

Therefore, if you are a happy ORCA user, please consider citing a few of the papers listed below in the main body of your paper

In addition to the list printed below, the program has created the file NEB-TS_with_guess.bibtex that contains the list in bibtex format
You can import this file easily into all common literature databanks and citation aid programs


List of essential papers. We consider these as the minimum necessary citations

  1. Neese,F.
     Software update: the ORCA program system, version 5.0
     WIRES Comput. Molec. Sci., 2022 12(1)e1606
     doi.org/10.1002/wcms.1606

List of papers to cite with high priority. The work reported in these papers was absolutely
necessary for this run to complete.
Our perspective: the developers of density functionals and basis sets usually get cited in chemistry papers
Good! But without the algorithms to do something with them, the functionals or basis sets would not do anything.
Hence, in our opinion, the algorithm design and method developments papers are equally worthy of getting cited

  1. Neese,F.
     An improvement of the resolution of the identity approximation for the formation of the Coulomb matrix
     J. Comp. Chem., 2003 24(14)1740-1747
     doi.org/10.1002/jcc.10318
  2. Asgeirsson,V.; Orri Birgisson,B.; Björnsson,R.; Becker,U.; Neese,F.; Riplinger,C.; Jonsson,H.
     Nudged Elastic Band Method for Molecular Reactions Using Energy-Weighted Springs Combined with Eigenvector Following
     J. Chem. Theory Comput., 2021 17 4929-4945
     doi.org/10.1021/acs.jctc.1c00462
  3. Neese,F.
     The SHARK Integral Generation and Digestion System
     J. Comp. Chem., 2022  1-16
     doi.org/10.1002/jcc.26942
  4. Grimme,S.; Antony,J.; Ehrlich,S.; Krieg,H.
     A consistent and accurate ab initio parametrization of density functional dispersion correction (DFT-D) for the 94 elements H-Pu
     J. Chem. Phys., 2010 132 154104
     doi.org/10.1063/1.3382344
  5. Grimme,S.; Ehrlich,S.; Goerigk,L.
     Effect of the damping function in dispersion corrected density functional theory
     J. Comput. Chem., 2011 32(7)1456-1465
     doi.org/10.1002/jcc.21759

List of suggested additional citations. These are papers that are important in the 'surrounding' of 
of this run, or papers that preceded the highly important papers. If you like your results we are grateful for a citation.

  1. Neese,F.
     The ORCA program system
     WIRES Comput. Molec. Sci., 2012 2(1)73-78
     doi.org/10.1002/wcms.81
  2. Neese,F.
     Software update: the ORCA program system, version 4.0
     WIRES Comput. Molec. Sci., 2018 8(1)1-6
     doi.org/10.1002/wcms.1327
  3. Neese,F.; Wennmohs,F.; Becker,U.; Riplinger,C.
     The ORCA quantum chemistry program package
     J. Chem. Phys., 2020 152 Art. No. L224108
     doi.org/10.1063/5.0004608

List of optional additional citations

  1. Neese,F.
     Approximate second-order SCF convergence for spin unrestricted wavefunctions
     Chem. Phys. Lett., 2000 325(1-3)93-98
     doi.org/10.1016/s0009-2614(00)00662-x

Timings for individual modules:

Sum of individual times          ...      118.544 sec (=   1.976 min)
Startup calculation              ...        2.696 sec (=   0.045 min)   2.3 %
SCF iterations                   ...        6.804 sec (=   0.113 min)   5.7 %
Property calculations            ...        0.182 sec (=   0.003 min)   0.2 %
SCF Gradient evaluation          ...        3.756 sec (=   0.063 min)   3.2 %
Geometry relaxation              ...        0.022 sec (=   0.000 min)   0.0 %
NEB Iterations                   ...      105.083 sec (=   1.751 min)  88.6 %
                             ****ORCA TERMINATED NORMALLY****
TOTAL RUN TIME: 0 days 0 hours 1 minutes 56 seconds 409 msec
