
                                 *****************
                                 * O   R   C   A *
                                 *****************

                                            #,                                       
                                            ###                                      
                                            ####                                     
                                            #####                                    
                                            ######                                   
                                           ########,                                 
                                     ,,################,,,,,                         
                               ,,#################################,,                 
                          ,,##########################################,,             
                       ,#########################################, ''#####,          
                    ,#############################################,,   '####,        
                  ,##################################################,,,,####,       
                ,###########''''           ''''###############################       
              ,#####''   ,,,,##########,,,,          '''####'''          '####       
            ,##' ,,,,###########################,,,                        '##       
           ' ,,###''''                  '''############,,,                           
         ,,##''                                '''############,,,,        ,,,,,,###''
      ,#''                                            '''#######################'''  
     '                                                          ''''####''''         
             ,#######,   #######,   ,#######,      ##                                
            ,#'     '#,  ##    ##  ,#'     '#,    #''#        ,####,    ,#,          
            ##       ##  ##   ,#'  ##            #'  '#       #'       ,# #          
            ##       ##  #######   ##           ,######,      #####,      #          
            '#,     ,#'  ##    ##  '#,     ,#' ,#      #,     #,   #      #          
             '#######'   ##     ##  '#######'  #'      '#     '####' #    #          



                #########################################################
                #                        -***-                          #
                #          Department of theory and spectroscopy        #
                #                                                       #
                #                      Frank Neese                      #
                #                                                       #
                #     Directorship, Architecture, Infrastructure        #
                #                    SHARK, DRIVERS                     #
                #        Core code/Algorithms in most modules           #
                #                                                       #
                #        Max Planck Institute fuer Kohlenforschung      #
                #                Kaiser Wilhelm Platz 1                 #
                #                 D-45470 Muelheim/Ruhr                 #
                #                      Germany                          #
                #                                                       #
                #                  All rights reserved                  #
                #                        -***-                          #
                #########################################################


                         Program Version 6.1.0  -  RELEASE   -
                                (GIT: $679e74b$)
                          ($2025-06-10 18:02:51 +0200$)


 With contributions from (in alphabetic order):
[Max-Planck-Institut fuer Kohlenforschung]                               
  Daniel Aravena         : Magnetic Suceptibility                        
  Michael Atanasov       : Ab Initio Ligand Field Theory (pilot matlab implementation)
  Alexander A. Auer      : GIAO ZORA, VPT2 properties, NMR spectrum      
  Ute Becker             : All parallelization in ORCA, NUMFREQ, NUMCALC 
  Giovanni Bistoni       : ED, misc. LED, open-shell LED, HFLD           
  Dmytro Bykov           : pre 5.0 version of the SCF Hessian            
  Marcos Casanova-Páez   : Triplet and SCS-CIS(D). UHF-(DLPNO)-IP/EA/STEOM-CCSD. UHF-CVS-IP/STEOM-CCSD   
  Vijay G. Chilkuri      : MRCI spin determinant printing, contributions to CSF-ICE 
  Pauline Colinet        : FMM embedding                                 
  Dipayan Datta          : RHF DLPNO-CCSD density                        
  Achintya Kumar Dutta   : EOM-CC, STEOM-CC                              
  Nicolas Foglia         : Exact transition moments, OPA infrastructure, MCD improvements    
  Dmitry Ganyushin       : Spin-Orbit,Spin-Spin,Magnetic field MRCI      
  Miquel Garcia-Rates    : C-PCM and meta-GGA Hessian, CCSD/C-PCM, Gaussian charge scheme 
  Tiago L. C. Gouveia    : GS-ROHF, GS-ROCIS                             
  Yang Guo               : DLPNO-NEVPT2, F12-NEVPT2, CIM, IAO-localization        
  Andreas Hansen         : Spin unrestricted coupled pair/coupled cluster methods 
  Ingolf Harden          : AUTO-CI MPn and infrastructure                
  Benjamin Helmich-Paris : MC-RPA, TRAH-(SCF,CASSCF), AVAS, COSX integrals, SCF dyn. polar., MC-PDFT, srDFT 
  Lee Huntington         : MR-EOM, pCC                                   
  Robert Izsak           : Overlap fitted RIJCOSX, COSX-SCS-MP3, EOM     
  Riya Kayal             : Wick's Theorem for AUTO-CI, AUTO-CI UHF-CCSDT 
  Emily Kempfer          : AUTO-CI RHF CISDT and CCSDT, approximate NEVPT4
  Christian Kollmar      : KDIIS, OOCD, Brueckner-CCSD(T), CCSD density, CASPT2, CASPT2-K, improved NEVPT2 
  Axel Koslowski         : Symmetry handling                             
  Simone Kossmann        : meta-GGA functionals, TD-DFT gradient, OOMP2, (MP2 Hessian; deprecated post 5.0) 
  Lucas Lang             : DCDCAS, Hyperfine gauge corrections, ICE-SOC+SSC
  Marvin Lechner         : AUTO-CI (C++ implementation), FIC-MRCC        
  Spencer Leger          : CASSCF response                               
  Dagmar Lenk            : GEPOL surface, SMD, ORCA-2-JSON               
  Dimitrios Liakos       : Extrapolation schemes; Compound Job, Property file
  Dimitrios Manganas     : Further ROCIS development; embedding schemes. LFT, Crystal Embedding 
  Dimitrios Pantazis     : SARC Basis sets                               
  Anastasios Papadopoulos: AUTO-CI, single reference methods and gradients 
  Taras Petrenko         : pre 6.0 DFT Hessian and TD-DFT gradient,  ECA, NRVS 
  Petra Pikulova         : Analytic Raman intensities                    
  Peter Pinski           : DLPNO-MP2, DLPNO-MP2 Gradient                 
  Shashank Vittal Rao    : ES-AILFT, MagRelax                            
  Christoph Reimann      : Effective Core Potentials                     
  Marius Retegan         : Local ZFS, SOC                                
  Christoph Riplinger    : Optimizer, TS searches, QM/MM, DLPNO-CCSD(T), (RO)-DLPNO pert. Triples 
  Michael Roemelt        : Original ROCIS implementation, recursive CI coupling coefficients
  Masaaki Saitow         : Open-shell DLPNO-CCSD energy and density      
  Barbara Sandhoefer     : DKH picture change effects                    
  Yorick L. A. Schmerwitz: GMF and freeze-and-release deltaSCF, NEB S-IDPP initial path                    
  Kantharuban Sivalingam : CASSCF convergence/infrastructure, NEVPT2, NEVPT3, NEVPT4(SD), FIC-MRCI and CEPA variants
  Bernardo de Souza      : ESD, SOC TD-DFT                               
  Georgi L. Stoychev     : AutoAux, RI-MP2 NMR, DLPNO-MP2 response, X2C  
  Van Anh Tran           : RI-MP2 g-tensors                              
  Willem Van den Heuvel  : Paramagnetic NMR                              
  Zikuan Wang            : NOTCH, Electric field optimization            
  Frank Wennmohs         : Technical directorship and infrastructure     
  Hang Xu                : AUTO-CI-Response properties                   
                                                                         
[FACCTs GmbH]                                                            
  Markus Bursch, Nicolas Foglia, Miquel Garcia-Rates, Ingolf Harden, Hagen Neugebauer, Anastasios Papadopoulos, 
  Christoph Riplinger, Bernardo de Souza, Georgi L. Stoychev                                                    
                                                                 
  APM, various basis sets, CI-OPT, improved COSX, DLPNO-Multilevel,           
  DOCKER, DRACO, updates on ESD, Fragmentator, GOAT, IRC, LR-CPCM, L-BFGS, MBIS, meta-GGA TD-DFT gradient, ML-optimized integration grids, 
  MM, NACMEs, nearIR, NEB, NEB-TS, NL-DFT gradient (VV10), 2- and 3-layer-ONIOM, interface openCOSMO-RS, QMMM,   
  Crystal-QMMM, RESP, rigid body optimization, SF, symmetry and pop. for TD-DFT, various functionals, SOLVATOR                                   
                                                                         
[Other institutions]                                                     
  V. Asgeirsson          : NEB                                           
  Christoph Bannwarth    : sTDA-DFT, sTD-DFT, PBEh-3c, B97-3c, D3        
  Giovanni Bistoni       : ETS/NOCV, ADLD/ADEX, COVALED                  
  Martin Brehm           : Molecular dynamics                            
  Ronald Cardenas        : ETS/NOCV                                      
  Martina Colucci        : COVALED                                       
  Sebastian Ehlert       : rSCAN, r2SCAN, r2SCAN-3c, D4, dhf basis sets  
  Marvin Friede          : D4 for Fr, Ra, Ac-Lr                          
  Lars Goerigk           : TD-DFT with DH, B97 family of functionals     
  Stefan Grimme          : VdW corrections, initial TS optimization, DFT functionals, gCP, sTDA/sTD-DF 
  Waldemar Hujo          : DFT-NL                                        
  H. Jonsson             : NEB                                           
  Holger Kruse           : gCP                                           
  Marcel Mueller         : wB97X-3c, vDZP basis set                      
  Hagen Neugebauer       : wr2SCAN, Native XTB                           
  Gianluca Regni         : ADLD/ADEX                                     
  Tobias Risthaus        : pre 6.0 range-separated hybrid DFT and stability analysis
  Lukas Wittmann         : regularized MP2, r2SCAN double-hybrids, wr2SCAN        
                                                                         
We gratefully acknowledge several colleagues who have allowed us to      
interface, adapt or use parts of their codes:                            
  Ed Valeev, F. Pavosevic, A. Kumar             : LibInt (2-el integral package), F12 methods 
  Garnet Chan, S. Sharma, J. Yang, R. Olivares  : DMRG                   
  Ulf Ekstrom                                   : XCFun DFT Library      
  Mihaly Kallay                                 : mrcc  (arbitrary order and MRCC methods)
  Frank Weinhold                                : gennbo (NPA and NBO analysis)           
  Simon Mueller                                 : openCOSMO-RS                            
  Christopher J. Cramer and Donald G. Truhlar   : smd solvation model                     
  S Lehtola, MJT Oliveira, MAL Marques          : LibXC Library                           
  Liviu Ungur et al                             : ANISO software                          


 Your calculation uses the libint2 library for the computation of 2-el integrals
 For citations please refer to: http://libint.valeyev.net

 Your ORCA version has been built with support for libXC version: 7.0.0
 For citations please refer to: https://libxc.gitlab.io

 This ORCA versions uses:
   CBLAS   interface :  Fast vector & matrix operations
   LAPACKE interface :  Fast linear algebra routines
   SCALAPACK package :  Parallel linear algebra routines
   Shared memory     :  Shared parallel matrices
   BLAS/LAPACK       :  OpenBLAS 0.3.29  USE64BITINT DYNAMIC_ARCH NO_AFFINITY Haswell SINGLE_THREADED
        Core in use  :  Haswell
   Copyright (c) 2011-2014, The OpenBLAS Project


  ***********************************
  * Starting time: Fri Sep 26 20:41:18 2025
  * Host name:     Host-001
  * Process ID:    39466
  * Working dir.:  /home/ppravatto/Documenti/Esperimenti/ChimicaComputazionale/SPyCCI/distorted_TS_wuzcehrg_orca_PBE_def2-SVP_vacuum_optTS
  ***********************************

NOTE: MaxCore=750 MB was set to SCF,MP2,MDCI,CIPSI,MRCI,RASCI and CIS
      => If you want to overwrite this, your respective input block should be placed after the MaxCore statement


***************************************
The coordinates will be read from file: distorted_TS.xyz
***************************************


Your calculation utilizes the atom-pairwise dispersion correction
with the Becke-Johnson damping scheme (D3BJ)


Warning: RI is on but no J-basis has been assigned. Assigning Def2/J (nothing to worry about!)
================================================================================

----- Orbital basis set information -----
Your calculation utilizes the basis: def2-SVP
   F. Weigend and R. Ahlrichs, Phys. Chem. Chem. Phys. 7, 3297 (2005).

----- AuxJ basis set information -----
Your calculation utilizes the auxiliary basis: def2/J
   H-Rn: F. Weigend, Phys. Chem. Chem. Phys. 8, 1057 (2006).
   Fr-Lr: K. Eichkorn, F. Weigend, O. Treutler, R. Ahlrichs; Theor. Chem. Acc. 97, 119 (1997).

================================================================================
                                        WARNINGS
                       Please study these warnings very carefully!
================================================================================


WARNING: Geometry Optimization
  ===> : Switching off AutoStart
         For restart on a previous wavefunction, please use MOREAD

================================================================================
                                       INPUT FILE
================================================================================
NAME = input.inp
|  1> %pal
|  2>   nprocs 8
|  3> end
|  4> 
|  5> %maxcore 750
|  6> 
|  7> ! PBE def2-SVP D3BJ
|  8> ! TIGHTSCF SLOWCONV 
|  9> ! OptTS
| 10> ! Freq
| 11> 
| 12> %geom
| 13>   calc_hess true
| 14> end
| 15> 
| 16> * xyzfile -1 1 distorted_TS.xyz
| 17> 
| 18> 
| 19>                          ****END OF INPUT****
================================================================================

                       *****************************
                       * Geometry Optimization Run *
                       *****************************

Geometry optimization settings:
Update method            Update   .... Bofill
Choice of coordinates    CoordSys .... (2022) Redundant Internals
Initial Hessian          InHess   .... Almloef's Model
Max. no of cycles        MaxIter  .... 50

Convergence Tolerances:
Energy Change            TolE     ....  5.0000e-06 Eh
Max. Gradient            TolMAXG  ....  3.0000e-04 Eh/bohr
RMS Gradient             TolRMSG  ....  1.0000e-04 Eh/bohr
Max. Displacement        TolMAXD  ....  4.0000e-03 bohr
RMS Displacement         TolRMSD  ....  2.0000e-03 bohr
Strict Convergence                .... False

------------------------------------------------------------------------------
                        ORCA OPTIMIZATION COORDINATE SETUP
------------------------------------------------------------------------------

The optimization will be done in redundant internal coordinates (2022)
Making redundant internal coordinates   ...  (2022 redundants) done
Following TS mode number                ...     0
Evaluating the initial hessian          ...  (Is done on the fly) done
Evaluating the coordinates              ...  done
Calculating the B-matrix                .... done
Calculating the G-matrix                .... done
The number of degrees of freedom        ....   17

    -----------------------------------------------------------------
                    Redundant Internal Coordinates


    -----------------------------------------------------------------
         Definition                    Initial Value    d2E/dq (diagonal element)
    -----------------------------------------------------------------
      1. B(Br  1,C   0)                  2.3672         0.000000   
      2. B(H   2,C   0)                  1.0792         0.000000   
      3. B(H   3,C   0)                  1.0856         0.000000   
      4. B(H   4,C   0)                  1.0792         0.000000   
      5. B(Cl  5,H   4)                  2.5329         0.000000   
      6. B(Cl  5,H   2)                  2.5700         0.000000   
      7. B(Cl  5,C   0)                  2.3797         0.000000   
      8. B(Cl  5,H   3)                  2.6325         0.000000   
      9. A(Br  1,C   0,H   3)           91.3038         0.000000   
     10. A(H   2,C   0,H   3)          124.2318         0.000000   
     11. A(Br  1,C   0,H   4)           92.0567         0.000000   
     12. A(H   2,C   0,H   4)          119.6409         0.000000   
     13. A(H   3,C   0,H   4)          115.7631         0.000000   
     14. A(H   2,C   0,Cl  5)           87.5125         0.000000   
     15. A(H   3,C   0,Cl  5)           90.9818         0.000000   
     16. A(H   4,C   0,Cl  5)           85.3967         0.000000   
     17. A(Br  1,C   0,H   2)           92.6241         0.000000   
    -----------------------------------------------------------------

Number of atoms                         .... 6
Number of degrees of freedom            .... 17


         *************************************************************
         *                GEOMETRY OPTIMIZATION CYCLE   1            *
         *************************************************************
---------------------------------
CARTESIAN COORDINATES (ANGSTROEM)
---------------------------------
  C     -4.385750    1.269520    0.011566
  Br    -2.047465    1.252802   -0.357181
  H     -4.334584    2.164378    0.612639
  H     -4.354621    0.261450    0.413229
  H     -4.591033    1.347314   -1.045064
  Cl    -6.748825    1.347966    0.281377

----------------------------
CARTESIAN COORDINATES (A.U.)
----------------------------
  NO LB      ZA    FRAG     MASS         X           Y           Z
   0 C     6.0000    0    12.011   -8.287866    2.399044    0.021857
   1 Br   35.0000    0    79.900   -3.869148    2.367454   -0.674974
   2 H     1.0000    0     1.008   -8.191177    4.090081    1.157720
   3 H     1.0000    0     1.008   -8.229041    0.494068    0.780889
   4 H     1.0000    0     1.008   -8.675795    2.546054   -1.974885
   5 Cl   17.0000    0    35.453  -12.753432    2.547286    0.531725

--------------------------------
INTERNAL COORDINATES (ANGSTROEM)
--------------------------------
 C      0   0   0     0.000000000000     0.00000000     0.00000000
 Br     1   0   0     2.367240553226     0.00000000     0.00000000
 H      1   2   0     1.079202175656    92.62409588     0.00000000
 H      1   2   3     1.085590664274    91.30376998   235.64482656
 H      1   2   3     1.079194609229    92.05665889   119.80474156
 Cl     1   2   3     2.379722441352   177.13754021    92.66986167

---------------------------
INTERNAL COORDINATES (A.U.)
---------------------------
 C      0   0   0     0.000000000000     0.00000000     0.00000000
 Br     1   0   0     4.473436338709     0.00000000     0.00000000
 H      1   2   0     2.039396555122    92.62409588     0.00000000
 H      1   2   3     2.051469049020    91.30376998   235.64482656
 H      1   2   3     2.039382256648    92.05665889   119.80474156
 Cl     1   2   3     4.497023688902   177.13754021    92.66986167

---------------------
BASIS SET INFORMATION
---------------------
There are 4 groups of distinct atoms

 Group   1 Type C   : 7s4p1d contracted to 3s2p1d pattern {511/31/1}
 Group   2 Type Br  : 14s10p6d contracted to 5s4p3d pattern {63311/5311/411}
 Group   3 Type H   : 4s1p contracted to 2s1p pattern {31/1}
 Group   4 Type Cl  : 10s7p1d contracted to 4s3p1d pattern {5311/511/1}

Atom   0C    basis set group =>   1
Atom   1Br   basis set group =>   2
Atom   2H    basis set group =>   3
Atom   3H    basis set group =>   3
Atom   4H    basis set group =>   3
Atom   5Cl   basis set group =>   4
---------------------------------
AUXILIARY/J BASIS SET INFORMATION
---------------------------------
There are 4 groups of distinct atoms

 Group   1 Type C   : 12s5p4d2f1g contracted to 6s4p3d1f1g pattern {711111/2111/211/2/1}
 Group   2 Type Br  : 19s5p5d3f1g contracted to 8s4p3d2f1g pattern {121111111/2111/311/21/1}
 Group   3 Type H   : 5s2p1d contracted to 3s1p1d pattern {311/2/1}
 Group   4 Type Cl  : 14s5p5d2f1g contracted to 8s4p3d1f1g pattern {71111111/2111/311/2/1}

Atom   0C    basis set group =>   1
Atom   1Br   basis set group =>   2
Atom   2H    basis set group =>   3
Atom   3H    basis set group =>   3
Atom   4H    basis set group =>   3
Atom   5Cl   basis set group =>   4


           ************************************************************
           *        Program running with 8 parallel MPI-processes     *
           *              working on a common directory               *
           ************************************************************
------------------------------------------------------------------------------
                             ORCA STARTUP CALCULATIONS
                           -- RI-GTO INTEGRALS CHOSEN --
------------------------------------------------------------------------------
------------------------------------------------------------------------------
                   ___                                                        
                  /   \      - P O W E R E D   B Y -                         
                 /     \                                                     
                 |  |  |   _    _      __       _____    __    __             
                 |  |  |  | |  | |    /  \     |  _  \  |  |  /  |          
                  \  \/   | |  | |   /    \    | | | |  |  | /  /          
                 / \  \   | |__| |  /  /\  \   | |_| |  |  |/  /          
                |  |  |   |  __  | /  /__\  \  |    /   |      \           
                |  |  |   | |  | | |   __   |  |    \   |  |\   \          
                \     /   | |  | | |  |  |  |  | |\  \  |  | \   \       
                 \___/    |_|  |_| |__|  |__|  |_| \__\ |__|  \__/        
                                                                              
                      - O R C A' S   B I G   F R I E N D -                    
                                      &                                       
                       - I N T E G R A L  F E E D E R -                       
                                                                              
 v1 FN, 2020, v2 2021, v3 2022-2024                                           
------------------------------------------------------------------------------


----------------------
SHARK INTEGRAL PACKAGE
----------------------

Number of atoms                             ...      6
Number of basis functions                   ...     79
Number of shells                            ...     35
Maximum angular momentum                    ...      2
Integral batch strategy                     ... SHARK/LIBINT Hybrid
RI-J (if used) integral strategy            ... SPLIT-RIJ (Revised 2003 algorithm where possible)
Printlevel                                  ...      1
Contraction scheme used                     ... SEGMENTED contraction
Prescreening option                         ... SCHWARTZ
   Thresh                                   ... 2.500e-11
   Tcut                                     ... 2.500e-12
   Tpresel                                  ... 2.500e-12 
Coulomb Range Separation                    ... NOT USED
Exchange Range Separation                   ... NOT USED
Multipole approximations                    ... NOT USED
Finite Nucleus Model                        ... NOT USED
CABS basis                                  ... NOT available
Auxiliary Coulomb fitting basis             ... AVAILABLE
   # of basis functions in Aux-J            ...    191
   # of shells in Aux-J                     ...     65
   Maximum angular momentum in Aux-J        ...      4
Auxiliary J/K fitting basis                 ... NOT available
Auxiliary Correlation fitting basis         ... NOT available
Auxiliary 'external' fitting basis          ... NOT available

Checking pre-screening integrals            ... done (  0.0 sec) Dimension = 35
   => SHARK Basis and OBASIS are compatible. Storing Pre-screening
Shell pair information
Shell pair cut-off parameter TPreSel        ...   2.5e-12
Total number of shell pairs                 ...       630
Shell pairs after pre-screening             ...       577
Total number of primitive shell pairs       ...      2935
Primitive shell pairs kept                  ...      2038
          la=0 lb=0:    157 shell pairs
          la=1 lb=0:    200 shell pairs
          la=1 lb=1:     73 shell pairs
          la=2 lb=0:     80 shell pairs
          la=2 lb=1:     54 shell pairs
          la=2 lb=2:     13 shell pairs

Checking whether 4 symmetric matrices of dimension 79 fit in memory
:Max Core in MB      =    750.00
 MB in use           =      4.04
 MB left             =    745.96
 MB needed           =      0.10
 Data fit in memory  = YES
Calculating RI/J V-Matrix + Cholesky decomp.... done (  0.0 sec)
Calculating Nuclear repulsion               ... done (  0.0 sec) ENN=    177.176937749080 Eh

Diagonalization of the overlap matrix:
Smallest eigenvalue                        ... 1.377e-02
Time for diagonalization                   ...    0.002 sec
Threshold for overlap eigenvalues          ... 1.000e-07
Number of eigenvalues below threshold      ... 0
Time for construction of square roots      ...    0.001 sec
Total time needed                          ...    0.004 sec

-------------------
DFT GRID GENERATION
-------------------

General Integration Accuracy     IntAcc      ... 4.388
Radial Grid Type                 RadialGrid  ... OptM3 with GC (2021)
Angular Grid (max. ang.)         AngularGrid ... 4 (Lebedev-302)
Angular grid pruning method      GridPruning ... 4 (adaptive)
Weight generation scheme         WeightScheme... mBecke (2022)
Basis function cutoff            BFCut       ... 1.0000e-11
Integration weight cutoff        WCut        ... 1.0000e-14
Partially contracted basis set               ... off
Rotationally invariant grid construction     ... off
Angular grids for H and He will be reduced by one unit
Core-polarized basis detected: some atoms will have their core
                               angular grid increased.

Total number of grid points                  ...    34587
Total number of batches                      ...      545
Average number of points per batch           ...       63
Average number of grid points per atom       ...     5764
Grids setup in   0.4 sec
Initializing property integral containers    ... done (  0.0 sec)

SHARK setup successfully completed in   0.5 seconds

Maximum memory used throughout the entire STARTUP-calculation: 12.6 MB


           ************************************************************
           *        Program running with 8 parallel MPI-processes     *
           *              working on a common directory               *
           ************************************************************
-------------------------------------------------------------------------------
                                 ORCA GUESS
                   Start orbitals & Density for SCF / CASSCF
-------------------------------------------------------------------------------

------------
SCF SETTINGS
------------
Hamiltonian:
 Density Functional     Method          .... DFT(GTOs)
 Exchange Functional    Exchange        .... PBE
   PBE kappa parameter   XKappa         ....  0.804000
   PBE mue parameter    XMuePBE         ....  0.219520
 Correlation Functional Correlation     .... PBE
   PBE beta parameter  CBetaPBE         ....  0.066725
 LDA part of GGA corr.  LDAOpt          .... PW91-LDA
 Gradients option       PostSCFGGA      .... off
   NL short-range parameter             ....  6.400000
 RI-approximation to the Coulomb term is turned on
   Number of AuxJ basis functions       .... 191


General Settings:
 Integral files         IntName         .... input
 Hartree-Fock type      HFTyp           .... RHF
 Total Charge           Charge          ....   -1
 Multiplicity           Mult            ....    1
 Number of Electrons    NEL             ....   62
 Basis Dimension        Dim             ....   79
 Nuclear Repulsion      ENuc            ....    177.1769377491 Eh

Convergence Acceleration:
 AO-DIIS                CNVDIIS         .... on
   Start iteration      DIISMaxIt       ....     0
   Startup error        DIISStart       ....  0.200000
   # of expansion vecs  DIISMaxEq       ....     5
   Bias factor          DIISBfac        ....   1.050
   Max. coefficient     DIISMaxC        ....  10.000
 MO-DIIS                CNVKDIIS        .... off
 Trust-Rad. Augm. Hess. CNVTRAH         .... auto
   Auto Start mean grad. ratio tolernc. ....  1.125000
   Auto Start start iteration           ....    50
   Auto Start num. interpolation iter.  ....    10
   Max. Number of Micro iterations      ....    24
   Max. Number of Macro iterations      .... Maxiter - #DIIS iter
   Number of Davidson start vectors     ....     2
   Converg. threshold    (grad. norm)   ....   1.000e-05
   Grad. Scal. Fac. for Micro threshold ....   0.100
   Minimum threshold for Micro iter.    ....   1.000e-02
   NR start threshold (gradient norm)   ....   1.000e-04
   Initial trust radius                 ....   0.400
   Minimum AH scaling param. (alpha)    ....   1.000
   Maximum AH scaling param. (alpha)    .... 1000.000
   Quad. conv. algorithm                .... NR
   White noise on init. David. guess    .... on
   Maximum white noise                  ....   0.010
   Pseudo random numbers                .... off
   Inactive MOs                         .... canonical
   Orbital update algorithm             .... Taylor
   Preconditioner                       .... Diag
   Full preconditioner red. dimension   ....   250
 SOSCF                 CNVSOSCF           .... on
   Start iteration     SOSCFMaxIt         ....   150
   Startup grad/error  SOSCFStart         ....  0.001000
   Hessian update      SOSCFHessUp        .... L-BFGS
   Autom. constraints  SOSCFAutoConstrain .... off
 Level Shifting         CNVShift        .... on
   Level shift para.    LevelShift      ....    0.2500
   Turn off err/grad.   ShiftErr        ....    0.0000
 Zerner damping         CNVZerner       .... off
 Static damping         CNVDamp         .... on
   Fraction old density DampFac         ....    0.8500
   Max. Damping (<1)    DampMax         ....    0.9800
   Min. Damping (>=0)   DampMin         ....    0.0000
   Turn off err/grad.   DampErr         ....    0.0300

SCF Procedure:
 Maximum # iterations   MaxIter         ....   125
 SCF integral mode      SCFMode         .... Direct
   Integral package                     .... SHARK and LIBINT hybrid scheme
 Reset frequency        DirectResetFreq ....    20
 Integral Threshold     Thresh          ....  2.500e-11 Eh
 Primitive CutOff       TCut            ....  2.500e-12 Eh

Convergence Tolerance:
 Convergence Check Mode ConvCheckMode   .... Total+1el-Energy
 Convergence forced     ConvForced      .... 0
 Energy Change          TolE            ....  1.000e-08 Eh
 1-El. energy change                    ....  1.000e-05 Eh
 Orbital Gradient       TolG            ....  1.000e-05
 Orbital Rotation angle TolX            ....  1.000e-05
 DIIS Error             TolErr          ....  5.000e-07

------------------------------
INITIAL GUESS: MODEL POTENTIAL
------------------------------
Loading Hartree-Fock densities                     ... done
Calculating cut-offs                               ... done
Initializing the effective Hamiltonian             ... done
Setting up the integral package (SHARK)            ... done
Starting the Coulomb interaction                   ... done (   0.0 sec)
Making the grid                                    ... done (   0.1 sec)
Mapping shells                                     ... done
Starting the XC term evaluation                    ... done (   0.0 sec)
  promolecular density results
     # of electrons  =     60.998285692
     EX              =   -122.563780881
     EC              =     -2.643189822
     EX+EC           =   -125.206970702
Transforming the Hamiltonian                       ... done (   0.0 sec)
Diagonalizing the Hamiltonian                      ... done (   0.0 sec)
Back transforming the eigenvectors                 ... done (   0.0 sec)
Now organizing SCF variables                       ... done
                      ------------------
                      INITIAL GUESS DONE (   0.2 sec)
                      ------------------
             **** ENERGY FILE WAS UPDATED (input.en.tmp) ****
Finished Guess after   0.3 sec
Maximum memory used throughout the entire GUESS-calculation: 7.0 MB


           ************************************************************
           *        Program running with 8 parallel MPI-processes     *
           *              working on a common directory               *
           ************************************************************

-------------------------------------------------------------------------------------------
                                      ORCA LEAN-SCF
                              memory conserving SCF solver
-------------------------------------------------------------------------------------------

----------------------------------------D-I-I-S--------------------------------------------
Iteration    Energy (Eh)           Delta-E    RMSDP     MaxDP     DIISErr   Damp  Time(sec)
-------------------------------------------------------------------------------------------
               ***  Starting incremental Fock matrix formation  ***
    1    -3073.1348865479803862     0.00e+00  6.26e-03  4.66e-02  1.13e-01  0.850   0.2
    2    -3073.1493044232834109    -1.44e-02  6.29e-03  4.23e-02  8.74e-02  0.850   0.2
                               ***Turning on AO-DIIS***
    3    -3073.1595138756943015    -1.02e-02  3.98e-03  2.28e-02  6.26e-02  0.850   0.3
    4    -3073.1661796330854486    -6.67e-03  2.80e-03  1.78e-02  4.87e-02  0.850   0.2
    5    -3073.1709228505096689    -4.74e-03  2.04e-03  1.36e-02  3.97e-02  0.850   0.2
    6    -3073.1745550015393746    -3.63e-03  1.54e-03  9.99e-03  3.34e-02  0.850   0.2
    7    -3073.1774725632212721    -2.92e-03  1.24e-03  7.26e-03  2.86e-02  0.850   0.2
    8    -3073.1798786276808642    -2.41e-03  7.17e-03  3.96e-02  2.44e-02  0.000   0.2
    9    -3073.1920183802312749    -1.21e-02  5.50e-04  3.60e-03  2.50e-03  0.000   0.2
                              *** Initializing SOSCF ***
---------------------------------------S-O-S-C-F--------------------------------------
Iteration    Energy (Eh)           Delta-E    RMSDP     MaxDP     MaxGrad    Time(sec)
--------------------------------------------------------------------------------------
   10    -3073.1920369770573416    -1.86e-05  2.73e-04  2.12e-03  8.39e-04     0.2
               *** Restarting incremental Fock matrix formation ***
   11    -3073.1920414511032504    -4.47e-06  1.85e-04  1.01e-03  2.00e-04     0.2
   12    -3073.1920403581930259     1.09e-06  1.21e-04  7.13e-04  4.58e-04     0.3
   13    -3073.1920418830409290    -1.52e-06  2.03e-05  1.78e-04  5.77e-05     0.2
   14    -3073.1920418886234074    -5.58e-09  9.15e-06  7.83e-05  4.24e-05     0.2
                 **** Energy Check signals convergence ****

               *****************************************************
               *                     SUCCESS                       *
               *           SCF CONVERGED AFTER  14 CYCLES          *
               *****************************************************

             **** ENERGY FILE WAS UPDATED (input.en.tmp) ****

----------------
TOTAL SCF ENERGY
----------------

Total Energy       :      -3073.19204189341644 Eh          -83625.80691 eV

Components:
Nuclear Repulsion  :        177.17693774908039 Eh            4821.22958 eV
Electronic Energy  :      -3250.36897964249692 Eh          -88447.03650 eV
One Electron Energy:      -4637.99578431082682 Eh         -126206.28149 eV
Two Electron Energy:       1387.62680466832967 Eh           37759.24500 eV

Virial components:
Potential Energy   :      -6142.14346414649117 Eh         -167136.22070 eV
Kinetic Energy     :       3068.95142225307427 Eh           83510.41379 eV
Virial Ratio       :          2.00138178128516

DFT components:
N(Alpha)           :       31.000001950780 electrons
N(Beta)            :       31.000001950780 electrons
N(Total)           :       62.000003901561 electrons
E(X)               :     -123.002009728477 Eh       
E(C)               :       -2.693647006543 Eh       
E(XC)              :     -125.695656735020 Eh       

---------------
SCF CONVERGENCE
---------------

  Last Energy change         ...    5.5825e-09  Tolerance :   1.0000e-08
  Last MAX-Density change    ...    7.8260e-05  Tolerance :   1.0000e-07
  Last RMS-Density change    ...    9.1543e-06  Tolerance :   5.0000e-09
  Last DIIS Error            ...    8.3949e-04  Tolerance :   5.0000e-07
  Last Orbital Gradient      ...    4.2425e-05  Tolerance :   1.0000e-05
  Last Orbital Rotation      ...    3.0519e-05  Tolerance :   1.0000e-05


----------------
ORBITAL ENERGIES
----------------

  NO   OCC          E(Eh)            E(eV) 
   0   2.0000    -480.698041    -13080.4587 
   1   2.0000    -100.358983     -2730.9068 
   2   2.0000     -61.539877     -1674.5852 
   3   2.0000     -55.469618     -1509.4050 
   4   2.0000     -55.467934     -1509.3592 
   5   2.0000     -55.467922     -1509.3589 
   6   2.0000      -9.775087      -265.9936 
   7   2.0000      -8.891512      -241.9503 
   8   2.0000      -8.163947      -222.1523 
   9   2.0000      -6.719452      -182.8456 
  10   2.0000      -6.713662      -182.6880 
  11   2.0000      -6.713632      -182.6872 
  12   2.0000      -6.041249      -164.3907 
  13   2.0000      -6.033865      -164.1898 
  14   2.0000      -6.033829      -164.1888 
  15   2.0000      -2.243415       -61.0464 
  16   2.0000      -2.241625       -60.9977 
  17   2.0000      -2.241598       -60.9970 
  18   2.0000      -2.236084       -60.8469 
  19   2.0000      -2.236083       -60.8469 
  20   2.0000      -0.490461       -13.3461 
  21   2.0000      -0.454965       -12.3802 
  22   2.0000      -0.408537       -11.1169 
  23   2.0000      -0.224796        -6.1170 
  24   2.0000      -0.211931        -5.7669 
  25   2.0000      -0.111068        -3.0223 
  26   2.0000      -0.037675        -1.0252 
  27   2.0000      -0.037300        -1.0150 
  28   2.0000      -0.020869        -0.5679 
  29   2.0000      -0.018169        -0.4944 
  30   2.0000      -0.017555        -0.4777 
  31   0.0000       0.126623         3.4456 
  32   0.0000       0.205864         5.6018 
  33   0.0000       0.270318         7.3557 
  34   0.0000       0.273401         7.4396 
  35   0.0000       0.499140        13.5823 
  36   0.0000       0.536951        14.6112 
  37   0.0000       0.556221        15.1355 
  38   0.0000       0.622588        16.9415 
  39   0.0000       0.670890        18.2558 
  40   0.0000       0.702558        19.1176 
  41   0.0000       0.703689        19.1483 
*Only the first 10 virtual orbitals were printed.

                    ********************************
                    * MULLIKEN POPULATION ANALYSIS *
                    ********************************

-----------------------
MULLIKEN ATOMIC CHARGES
-----------------------
   0 C :   -0.034022
   1 Br:   -0.582278
   2 H :    0.075478
   3 H :    0.070760
   4 H :    0.068997
   5 Cl:   -0.598936
Sum of atomic charges:   -1.0000000

--------------------------------
MULLIKEN REDUCED ORBITAL CHARGES
--------------------------------
  0 C s       :     3.192461  s :     3.192461
      pz      :     1.023156  p :     2.820843
      px      :     0.791953
      py      :     1.005734
      dz2     :     0.005988  d :     0.020718
      dxz     :     0.001524
      dyz     :     0.004717
      dx2y2   :     0.007533
      dxy     :     0.000956

  1 Brs       :     7.985059  s :     7.985059
      pz      :     5.984354  p :    17.582652
      px      :     5.603883
      py      :     5.994415
      dz2     :     2.002093  d :    10.014567
      dxz     :     2.003132
      dyz     :     2.000160
      dx2y2   :     2.006662
      dxy     :     2.002521

  2 H s       :     0.899962  s :     0.899962
      pz      :     0.007864  p :     0.024560
      px      :     0.005666
      py      :     0.011029

  3 H s       :     0.905047  s :     0.905047
      pz      :     0.006321  p :     0.024192
      px      :     0.005464
      py      :     0.012407

  4 H s       :     0.906255  s :     0.906255
      pz      :     0.013409  p :     0.024748
      px      :     0.006293
      py      :     0.005046

  5 Cls       :     5.984488  s :     5.984488
      pz      :     3.984143  p :    11.610254
      px      :     3.638081
      py      :     3.988031
      dz2     :     0.000707  d :     0.004193
      dxz     :     0.000774
      dyz     :     0.000000
      dx2y2   :     0.002100
      dxy     :     0.000612



                     *******************************
                     * LOEWDIN POPULATION ANALYSIS *
                     *******************************

----------------------
LOEWDIN ATOMIC CHARGES
----------------------
   0 C :   -0.061884
   1 Br:   -0.468033
   2 H :    0.015556
   3 H :    0.016994
   4 H :    0.013005
   5 Cl:   -0.515639

-------------------------------
LOEWDIN REDUCED ORBITAL CHARGES
-------------------------------
  0 C s       :     2.975998  s :     2.975998
      pz      :     1.094120  p :     3.035417
      px      :     0.854381
      py      :     1.086916
      dz2     :     0.015037  d :     0.050468
      dxz     :     0.003151
      dyz     :     0.013107
      dx2y2   :     0.017559
      dxy     :     0.001615

  1 Brs       :     7.936303  s :     7.936303
      pz      :     5.974415  p :    17.515417
      px      :     5.556266
      py      :     5.984736
      dz2     :     2.002567  d :    10.016313
      dxz     :     2.003068
      dyz     :     2.000159
      dx2y2   :     2.008343
      dxy     :     2.002177

  2 H s       :     0.909488  s :     0.909488
      pz      :     0.023140  p :     0.074955
      px      :     0.015520
      py      :     0.036295

  3 H s       :     0.909886  s :     0.909886
      pz      :     0.016690  p :     0.073120
      px      :     0.014909
      py      :     0.041521

  4 H s       :     0.911924  s :     0.911924
      pz      :     0.045480  p :     0.075070
      px      :     0.017642
      py      :     0.011948

  5 Cls       :     5.943544  s :     5.943544
      pz      :     3.978504  p :    11.568363
      px      :     3.607023
      py      :     3.982836
      dz2     :     0.000665  d :     0.003732
      dxz     :     0.000633
      dyz     :     0.000000
      dx2y2   :     0.001962
      dxy     :     0.000472



                      *****************************
                      * MAYER POPULATION ANALYSIS *
                      *****************************

  NA   - Mulliken gross atomic population
  ZA   - Total nuclear charge
  QA   - Mulliken gross atomic charge
  VA   - Mayer's total valence
  BVA  - Mayer's bonded valence
  FA   - Mayer's free valence

  ATOM       NA         ZA         QA         VA         BVA        FA
  0 C      6.0340     6.0000    -0.0340     3.8875     3.8875    -0.0000
  1 Br    35.5823    35.0000    -0.5823     0.6924     0.6924     0.0000
  2 H      0.9245     1.0000     0.0755     1.0118     1.0118    -0.0000
  3 H      0.9292     1.0000     0.0708     1.0086     1.0086     0.0000
  4 H      0.9310     1.0000     0.0690     1.0164     1.0164    -0.0000
  5 Cl    17.5989    17.0000    -0.5989     0.6637     0.6637    -0.0000

  Mayer bond orders larger than 0.100000
B(  0-C ,  1-Br) :   0.5063 B(  0-C ,  2-H ) :   0.9805 B(  0-C ,  3-H ) :   0.9823 
B(  0-C ,  4-H ) :   0.9821 B(  0-C ,  5-Cl) :   0.4362 B(  1-Br,  5-Cl) :   0.1539 


-------
TIMINGS
-------

Total SCF time: 0 days 0 hours 0 min 3 sec 

Total time                  ....       3.095 sec
Sum of individual times     ....       2.847 sec  ( 92.0%)

SCF preparation             ....       0.234 sec  (  7.6%)
Fock matrix formation       ....       2.286 sec  ( 73.9%)
  Startup                   ....       0.011 sec  (  0.5% of F)
  Split-RI-J                ....       0.247 sec  ( 10.8% of F)
  XC integration            ....       1.890 sec  ( 82.7% of F)
    XC Preparation          ....       0.000 sec  (  0.0% of XC)
    Basis function eval.    ....       0.226 sec  ( 12.0% of XC)
    Density eval.           ....       0.124 sec  (  6.6% of XC)
    XC-Functional eval.     ....       0.056 sec  (  2.9% of XC)
    XC-Potential eval.      ....       0.092 sec  (  4.9% of XC)
Diagonalization             ....       0.000 sec  (  0.0%)
Density matrix formation    ....       0.066 sec  (  2.1%)
Total Energy calculation    ....       0.032 sec  (  1.0%)
Population analysis         ....       0.015 sec  (  0.5%)
Orbital Transformation      ....       0.017 sec  (  0.5%)
Orbital Orthonormalization  ....       0.000 sec  (  0.0%)
DIIS solution               ....       0.131 sec  (  4.2%)
SOSCF solution              ....       0.066 sec  (  2.1%)
Finished LeanSCF after   3.1 sec

Maximum memory used throughout the entire LEANSCF-calculation: 5.4 MB


           ************************************************************
           *        Program running with 8 parallel MPI-processes     *
           *              working on a common directory               *
           ************************************************************

------------------------------------------------------------------------------
                         ORCA PROPERTY INTEGRAL CALCULATIONS
------------------------------------------------------------------------------

GBWName                                   ... input.gbw
Number of atoms                           ...      6
Number of basis functions                 ...     79
Max core memory                           ...    750 MB

Dipole integrals                          ... YES
Quadrupole integrals                      ...  NO
Linear momentum integrals                 ...  NO
Angular momentum integrals                ...  NO
Higher moments length integrals           ...  NO
Higher moments velocity integrals         ...  NO
Kinetic energy integrals                  ...  NO
GIAO right hand sides                     ...  NO
GIAO dipole derivative integrals          ...  NO
SOC integrals                             ...  NO
EPR diamagnetic integrals (GIAO)          ...  NO
EPR gauge integrals                       ...  NO
Field gradient integrals                  ...  NO (   0 nuclei)
Spin-dipole/Fermi contact integrals       ...  NO (   0 nuclei)
Contact density integrals                 ...  NO (   0 nuclei)
Nucleus-orbit integrals                   ...  NO (   0 nuclei)
Geometric perturbations                   ...  NO (   6 nuclei)

Choice of electric origin   ... Center of mass
Position of electric origin ... ( -6.7961,  2.4195, -0.2673) 
Choice of magnetic origin   ... GIAO
Position of magnetic origin ... (  0.0000,  0.0000,  0.0000) 

Calculating integrals                     ... Electric Dipole (Length)     done (  0.0 sec)

Property integrals calculated in   0.0 sec

Maximum memory used throughout the entire PROPINT-calculation: 6.5 MB


-------------------------------------------------------------------------------
                          DFT DISPERSION CORRECTION                            
                                                                               
                              DFTD3 V3.1  Rev 1                                
                          USING Becke-Johnson damping                          
-------------------------------------------------------------------------------
The PBE functional is recognized
Active option DFTDOPT                   ...         4   

molecular C6(AA) [au] = 1029.351977 


            DFT-D V3
 parameters
 s6 scaling factor         :     1.0000 
 a1 scaling factor         :     0.4289 
 s8 scaling factor         :     0.7875 
 a2 scaling factor         :     4.4407 
 ad hoc parameters k1-k3   :    16.0000     1.3333    -4.0000 

 Edisp/kcal,au: -2.497306026572  -0.003979710050 
 E6   /kcal   :  -1.669383490 
 E8   /kcal   :  -0.827922537 
 % E8         :  33.152626400 

-------------------------   ----------------
Dispersion correction           -0.003979710
-------------------------   ----------------


-------------------------   --------------------
FINAL SINGLE POINT ENERGY     -3073.196021603466
-------------------------   --------------------



           ************************************************************
           *        Program running with 8 parallel MPI-processes     *
           *              working on a common directory               *
           ************************************************************
------------------------------------------------------------------------------
                         ORCA SCF GRADIENT CALCULATION
------------------------------------------------------------------------------

Nuc. rep. gradient        (SHARK) ... done (  0.0 sec)
HCore & Overlap gradient  (SHARK) ... done (  0.0 sec)
Split-RIJ-J gradient      (SHARK) ... done (  0.3 sec)
XC gradient                       ... done (  0.4 sec)
Dispersion correction             ... done (  0.1 sec)

-------------------
DISPERSION GRADIENT
-------------------

   1   C   :   -0.000028045   -0.000000413    0.000004311
   2   Br  :    0.000321982   -0.000004135   -0.000045974
   3   H   :    0.000000659    0.000038273    0.000028470
   4   H   :    0.000004336   -0.000045577    0.000019026
   5   H   :   -0.000011698    0.000002100   -0.000041739
   6   Cl  :   -0.000287233    0.000009752    0.000035906

Difference to translation invariance:
           :    0.0000000000    0.0000000000    0.0000000000

Difference to rotation invariance:
           :   -0.0000000000   -0.0000000000   -0.0000000000

Norm of the Dispersion gradient    ...    0.0004439742
RMS gradient                       ...    0.0001046457
MAX gradient                       ...    0.0003219820

------------------
CARTESIAN GRADIENT
------------------

   1   C   :    0.002826441    0.005623706    0.006175521
   2   Br  :   -0.009248419   -0.000024239    0.001054145
   3   H   :    0.000462954   -0.003534113   -0.006295307
   4   H   :    0.002106528    0.000571825   -0.006990503
   5   H   :    0.001609080   -0.003363637    0.007329564
   6   Cl  :    0.002243417    0.000726458   -0.001273419

Difference to translation invariance:
           :    0.0000000002    0.0000000001    0.0000000000

Difference to rotation invariance:
           :    0.0000032209    0.0000190364    0.0000143585

Norm of the Cartesian gradient     ...    0.0185787968
RMS gradient                       ...    0.0043790644
MAX gradient                       ...    0.0092484194

-------
TIMINGS
-------

Total SCF gradient time     ....        0.697 sec

Densities                   ....       0.000 sec  (  0.0%)
One electron gradient       ....       0.014 sec  (  2.1%)
RI-J Coulomb gradient       ....       0.252 sec  ( 36.2%)
XC gradient                 ....       0.351 sec  ( 50.4%)

Maximum memory used throughout the entire SCFGRAD-calculation: 26.2 MB


           ************************************************************
           *        Program running with 8 parallel MPI-processes     *
           *              working on a common directory               *
           ************************************************************

------------------------------------------------------------------------------
                         ORCA PROPERTY INTEGRAL CALCULATIONS
------------------------------------------------------------------------------

GBWName                                   ... input.gbw
Number of atoms                           ...      6
Number of basis functions                 ...     79
Max core memory                           ...    750 MB

Dipole integrals                          ...  NO
Quadrupole integrals                      ...  NO
Linear momentum integrals                 ...  NO
Angular momentum integrals                ...  NO
Higher moments length integrals           ...  NO
Higher moments velocity integrals         ...  NO
Kinetic energy integrals                  ...  NO
GIAO right hand sides                     ...  NO
GIAO dipole derivative integrals          ...  NO
SOC integrals                             ...  NO
EPR diamagnetic integrals (GIAO)          ...  NO
EPR gauge integrals                       ...  NO
Field gradient integrals                  ...  NO (   0 nuclei)
Spin-dipole/Fermi contact integrals       ...  NO (   0 nuclei)
Contact density integrals                 ...  NO (   0 nuclei)
Nucleus-orbit integrals                   ...  NO (   0 nuclei)
Geometric perturbations                   ... YES (   6 nuclei)

Choice of electric origin   ... Center of mass
Position of electric origin ... ( -6.7961,  2.4195, -0.2673) 
Choice of magnetic origin   ... GIAO
Position of magnetic origin ... (  0.0000,  0.0000,  0.0000) 

Calculating integrals                     ... Geometrical perturbation right hand sides

-----------------------
GEOMETRIC PERTURBATIONS (6 nuclei)
-----------------------

MaxCore                            ...    750 MB
Number of batches                  ...      1

BATCH   0: Atoms    0 -    5 ( 18 perturbations)
   => H(core) and overlap derivative integrals     ... done (     0.0 sec)
   => Making and storing internal U-coefficients   ... done (     0.0 sec)
   => RI-J derivative integrals                    ... done (     0.4 sec)
   => RI-J response operators                      ... done (     0.0 sec)
   => XC derivative integrals                      ... done (     1.1 sec)
   => XC response operators                        ... done (     0.3 sec)
   => Completing and storing right hand sides      ... done (     0.0 sec)
   => Total time for right hand sides =   2.2 sec

  geometrical perturbations done (  2.2 sec)

Property integrals calculated in   2.2 sec

Maximum memory used throughout the entire PROPINT-calculation: 10.5 MB


           ************************************************************
           *        Program running with 8 parallel MPI-processes     *
           *              working on a common directory               *
           ************************************************************
------------------------------------------------------------------------------
                            ORCA SCF RESPONSE CALCULATION
------------------------------------------------------------------------------

GBWName                                 ... input.gbw
Number of atoms                         ...      6
Number of basis functions               ...     79
Max core memory                         ...    750 MB

Electric field perturbation             ...  NO
Quadrupolar field perturbation          ...  NO
Magnetic field perturbation (no GIAO)   ...  NO
Magnetic field perturbation (with GIAO) ...  NO
Linear momentum (velocity) perturbation ...  NO
Spin-orbit coupling perturbation        ...  NO
Choice of electric origin               ... Center of mass
Position of electric origin             ...    -6.796137     2.419476    -0.267304
Choice of magnetic origin               ... GIAO
Position of magnetic origin             ...     0.000000     0.000000     0.000000
Nuclear geometric perturbations         ... YES (  18 perturbations)
Nucleus-orbit perturbations             ...  NO (   0 perturbations)
Spin-dipole/Fermi contact perturbations ...  NO (   0 perturbations)

Total number of real perturbations      ...     18
Total number of imaginary perturbations ...      0
Total number of triplet perturbations   ...      0
Total number of SOC perturbations       ...      0

Using XC Grid                  ... (input.grid_cpscf.tmp) 
Recalculating density on grid  ... (input.grho_cpscf0.tmp) done
Calculating the xc-kernel      ... (input.fxc_cpscf0.tmp) done

                                **********************
                                * REAL PERTURBATIONS *
                                **********************



-------------------
SHARK CP-SCF DRIVER
-------------------

Dimension of the orbital basis          ...     79
Dimension of the CPSCF-problem          ...   1488
Number of operators                     ...      1
Max. number of iterations               ...    128
Max. DIIS space dimension               ...     20
Convergence Tolerance                   ... 1.0e-04
Number of perturbations                 ...     18
Perturbation type                       ... REAL

--------------------
DIIS EQUATION SOLVER
--------------------

  ITERATION   0:   ||err||_max =   1.7787e-01 (   0.2 sec   0/ 18 done)
  ITERATION   1:   ||err||_max =   1.4394e-01 (   0.3 sec   0/ 18 done)
  ITERATION   2:   ||err||_max =   2.6630e-02 (   0.2 sec   0/ 18 done)
  ITERATION   3:   ||err||_max =   1.0840e-02 (   0.4 sec   0/ 18 done)
  ITERATION   4:   ||err||_max =   2.7933e-03 (   0.2 sec   1/ 18 done)
  ITERATION   5:   ||err||_max =   9.1495e-04 (   0.6 sec   3/ 18 done)
  ITERATION   6:   ||err||_max =   3.4309e-04 (   0.3 sec  15/ 18 done)
  ITERATION   7:   ||err||_max =   9.2336e-05 (   0.2 sec  18/ 18 done)

CP-SCF equations solved in   2.5 sec
Response densities calculated in   0.0 sec

Maximum memory used throughout the entire SCFRESP-calculation: 7.6 MB


           ************************************************************
           *        Program running with 8 parallel MPI-processes     *
           *              working on a common directory               *
           ************************************************************

------------------------------------------------------------------------------
                              ORCA PROPERTY CALCULATIONS
------------------------------------------------------------------------------

GBWName                                 ... input.gbw
Number of atoms                         ...      6
Number of basis functions               ...     79
Max core memory                         ...    750 MB

Electric properties:
Dipole moment                           ...  NO
Quadrupole moment                       ...  NO
Static polarizability (Dipole/Dipole)   ...  NO
Static polarizability (Dipole/Quad.)    ...  NO
Static polarizability (Quad./Quad.)     ...  NO
Static polarizability (Velocity)        ...  NO
Static hyperpolarizability              ...  NO

Atomic electric properties:
Dipole moment                           ...  NO
Quadrupole moment                       ...  NO
Static polarizability                   ...  NO

Choice of electric origin               ... Center of mass
Position of electric origin             ...    -6.796137     2.419476    -0.267304

General magnetic properties:
Magnetizability                         ...  NO

EPR properties:
g-Tensor (aka g-matrix)                 ...  NO
Zero-Field splitting spin-orbit         ...  NO
Zero-field splitting spin-spin          ...  NO
Hyperfine couplings                     ...  NO (   0 nuclei)
Quadrupole couplings                    ...  NO (   0 nuclei)
Contact density                         ...  NO (   0 nuclei)

NMR properties:
Chemical shifts                         ...  NO (   0 nuclei)
Spin-rotation constants                 ...  NO (   0 nuclei)
Spin-spin couplings                     ...  NO (   0 nuclei,    0 pairs)

Choice of magnetic origin               ... GIAO
Position of magnetic origin             ...     0.000000     0.000000     0.000000

Properties with geometric perturbations:
SCF Hessian                             ... YES
IR spectrum                             ... YES
VCD spectrum                            ...  NO
X-ray spectroscopy properties:
SCF XES/XAS/RIXS spectra                ...  NO

SCF SOC stabilization energy            ...  NO
Diagonal Born-Oppenheimer correction    ...  NO

-----------
SCF HESSIAN
-----------

Occupied/Occupied contributions to the Hessian:
   => Occupied/Occupied contributions              ... done (  0.0 sec)
Perturbed density contributions to the Hessian:
   => Perturbed density contributions              ... done (  0.0 sec)
Explicit contributions to the Hessian:
   => Nuclear repulsion Hessian                    ... done (  0.0 sec)
   => HCore and overlap Hessian                    ... done (  0.1 sec)
   => RI-J Hessian                                 ... done (  1.3 sec)
   => XC-Hessian                                   ... done (  1.6 sec)
   => Van der Waals-Hessian                        ... done (  0.4 sec)
   => Explicit contributions done
Dipole derivatives                                 ... done (  0.0 sec)
Mass weighting the Hessian           ... done
Calculating normal modes             ... done
Scaling frequencies                  ... done

-----------------------
VIBRATIONAL FREQUENCIES
-----------------------

Scaling factor for frequencies =  1.000000000  (already applied!)

     0:       0.00 cm**-1
     1:       0.00 cm**-1
     2:       0.00 cm**-1
     3:       0.00 cm**-1
     4:       0.00 cm**-1
     5:       0.00 cm**-1
     6:    -340.08 cm**-1  ***imaginary mode***
     7:     164.72 cm**-1
     8:     168.41 cm**-1
     9:     187.11 cm**-1
    10:     786.40 cm**-1
    11:     805.88 cm**-1
    12:     847.57 cm**-1
    13:    1252.49 cm**-1
    14:    1310.84 cm**-1
    15:    3181.99 cm**-1
    16:    3386.07 cm**-1
    17:    3432.43 cm**-1


------------
NORMAL MODES
------------

These modes are the Cartesian displacements weighted by the diagonal matrix
M(i,i)=1/sqrt(m[i]) where m[i] is the mass of the displaced atom
Thus, these vectors are normalized but *not* orthogonal

                  0          1          2          3          4          5    
      0       0.000000   0.000000   0.000000   0.000000   0.000000   0.000000
      1       0.000000   0.000000   0.000000   0.000000   0.000000   0.000000
      2       0.000000   0.000000   0.000000   0.000000   0.000000   0.000000
      3       0.000000   0.000000   0.000000   0.000000   0.000000   0.000000
      4       0.000000   0.000000   0.000000   0.000000   0.000000   0.000000
      5       0.000000   0.000000   0.000000   0.000000   0.000000   0.000000
      6       0.000000   0.000000   0.000000   0.000000   0.000000   0.000000
      7       0.000000   0.000000   0.000000   0.000000   0.000000   0.000000
      8       0.000000   0.000000   0.000000   0.000000   0.000000   0.000000
      9       0.000000   0.000000   0.000000   0.000000   0.000000   0.000000
     10       0.000000   0.000000   0.000000   0.000000   0.000000   0.000000
     11       0.000000   0.000000   0.000000   0.000000   0.000000   0.000000
     12       0.000000   0.000000   0.000000   0.000000   0.000000   0.000000
     13       0.000000   0.000000   0.000000   0.000000   0.000000   0.000000
     14       0.000000   0.000000   0.000000   0.000000   0.000000   0.000000
     15       0.000000   0.000000   0.000000   0.000000   0.000000   0.000000
     16       0.000000   0.000000   0.000000   0.000000   0.000000   0.000000
     17       0.000000   0.000000   0.000000   0.000000   0.000000   0.000000
                  6          7          8          9         10         11    
      0      -0.897983   0.031414  -0.048320  -0.200222   0.002768   0.014806
      1       0.034466   0.468818   0.087399  -0.061154  -0.002718  -0.015744
      2       0.107608   0.080994  -0.475541   0.046136  -0.015648   0.002682
      3       0.064575   0.002541   0.007570   0.399938  -0.003034  -0.003877
      4      -0.002063  -0.044234  -0.008265  -0.001891   0.000730   0.004130
      5      -0.008520  -0.008341   0.044352  -0.056352   0.004514  -0.000374
      6       0.286358   0.064226  -0.093055  -0.181764   0.699141   0.662449
      7       0.065189   0.415200   0.120377  -0.051267  -0.006694   0.021023
      8      -0.047618   0.172419  -0.527153   0.040498  -0.069947  -0.108470
      9       0.099558  -0.038655  -0.089411  -0.112385   0.348845  -0.599553
     10       0.011283   0.437592   0.110423  -0.064512   0.002834   0.002438
     11      -0.032668  -0.011662  -0.429637   0.050962  -0.027899   0.089111
     12       0.211735   0.016642  -0.032965  -0.210295  -0.610175   0.418537
     13       0.042458   0.592841   0.033993  -0.069949   0.012240   0.025547
     14      -0.100099   0.094454  -0.492835   0.039671   0.104698  -0.071242
     15       0.141701  -0.017569   0.005434  -0.819161  -0.006548  -0.009967
     16      -0.010409  -0.100241  -0.018511   0.030261  -0.000962  -0.005367
     17      -0.012125  -0.015898   0.102367   0.107641  -0.005065   0.002510
                 12         13         14         15         16         17    
      0      -0.010920   0.012414  -0.005838   0.003450  -0.011173  -0.011252
      1      -0.003243  -0.038779  -0.082434   0.011910   0.074540  -0.070861
      2      -0.002772   0.085539  -0.037291  -0.006999  -0.065911  -0.074601
      3       0.011570   0.000036  -0.000033  -0.000124   0.000038   0.000020
      4       0.001527   0.000015   0.000065  -0.000009  -0.000079   0.000081
      5      -0.000946  -0.000018   0.000012   0.000020   0.000090   0.000094
      6      -0.212621  -0.085836  -0.064034   0.028352  -0.013983   0.038124
      7      -0.009651   0.459474   0.018294   0.447923  -0.206762   0.663351
      8       0.027475  -0.640750  -0.166034   0.303755  -0.149816   0.445654
      9      -0.711364  -0.035679   0.109837   0.021141   0.017292  -0.008109
     10       0.018219  -0.258015   0.182133  -0.629106  -0.627206   0.218934
     11       0.105717  -0.465736   0.572667   0.260286   0.248941  -0.099053
     12      -0.649046  -0.030476   0.018699  -0.090174   0.128949   0.101671
     13       0.011402   0.255621   0.765086   0.041978  -0.041113  -0.051120
     14       0.119193   0.104661   0.029773  -0.481899   0.671273   0.527667
     15       0.022348   0.000034   0.000218   0.000267  -0.000061   0.000022
     16      -0.002911   0.000108   0.000330  -0.000058  -0.000195   0.000193
     17      -0.004105  -0.000454   0.000199  -0.000009   0.000222   0.000205


-----------
IR SPECTRUM
-----------

 Mode   freq       eps      Int      T**2         TX        TY        TZ
       cm**-1   L/(mol*cm) km/mol    a.u.
----------------------------------------------------------------------------
  7:    164.72   0.001265    6.39  0.002396  ( 0.014985  0.046106  0.006734)
  8:    168.41   0.001268    6.41  0.002350  ( 0.008457  0.007563 -0.047125)
  9:    187.11   0.000236    1.19  0.000393  ( 0.019578 -0.002307 -0.002043)
 10:    786.40   0.000239    1.21  0.000095  (-0.006734  0.001686  0.006826)
 11:    805.88   0.000052    0.26  0.000020  (-0.001021  0.004184 -0.001180)
 12:    847.57   0.002131   10.77  0.000785  ( 0.027959 -0.000332 -0.001673)
 13:   1252.49   0.001099    5.55  0.000274  (-0.001803  0.005854 -0.015369)
 14:   1310.84   0.000622    3.14  0.000148  ( 0.001017  0.010592  0.005909)
 15:   3181.99   0.000005    0.03  0.000001  ( 0.000070  0.000315  0.000645)
 16:   3386.07   0.000222    1.12  0.000020  ( 0.000819 -0.003891  0.002160)
 17:   3432.43   0.000538    2.72  0.000049  ( 0.000772  0.005326  0.004469)

* The epsilon (eps) is given for a Dirac delta lineshape.
** The dipole moment derivative (T) already includes vibrational overlap.

The first frequency considered to be a vibration is 7
The total number of vibrations considered is 11


--------------------------
THERMOCHEMISTRY AT 298.15K
--------------------------

Temperature         ...   298.15 K
Pressure            ...     1.00 atm
Total Mass          ...   130.39 AMU
Quasi RRHO          ...     True
Cut-Off Frequency   ...     1.00 cm^-1

Throughout the following assumptions are being made:
  (1) The electronic state is orbitally nondegenerate
  (2) There are no thermally accessible electronically excited states
  (3) Hindered rotations indicated by low frequency modes are not
      treated as such but are treated as vibrations and this may
      cause some error
  (4) All equations used are the standard statistical mechanics
      equations for an ideal gas
  (5) All vibrations are strictly harmonic

freq.     164.72  E(vib)   ...       0.39 
freq.     168.41  E(vib)   ...       0.38 
freq.     187.11  E(vib)   ...       0.36 
freq.     786.40  E(vib)   ...       0.05 
freq.     805.88  E(vib)   ...       0.05 
freq.     847.57  E(vib)   ...       0.04 
freq.    1252.49  E(vib)   ...       0.01 
freq.    1310.84  E(vib)   ...       0.01 
freq.    3181.99  E(vib)   ...       0.00 
freq.    3386.07  E(vib)   ...       0.00 
freq.    3432.43  E(vib)   ...       0.00 

------------
INNER ENERGY
------------

The inner energy is: U= E(el) + E(ZPE) + E(vib) + E(rot) + E(trans)
    E(el)   - is the total energy from the electronic structure calculation
              = E(kin-el) + E(nuc-el) + E(el-el) + E(nuc-nuc)
    E(ZPE)  - the the zero temperature vibrational energy from the frequency calculation
    E(vib)  - the the finite temperature correction to E(ZPE) due to population
              of excited vibrational states
    E(rot)  - is the rotational thermal energy
    E(trans)- is the translational thermal energy

Summary of contributions to the inner energy U:
Electronic energy                ...  -3073.19602160 Eh
Zero point energy                ...      0.03536605 Eh      22.19 kcal/mol
Thermal vibrational correction   ...      0.00206052 Eh       1.29 kcal/mol
Thermal rotational correction    ...      0.00141627 Eh       0.89 kcal/mol
Thermal translational correction ...      0.00141627 Eh       0.89 kcal/mol
-----------------------------------------------------------------------
Total thermal energy                  -3073.15576249 Eh


Summary of corrections to the electronic energy:
(perhaps to be used in another calculation)
Total thermal correction                  0.00489307 Eh       3.07 kcal/mol
Non-thermal (ZPE) correction              0.03536605 Eh      22.19 kcal/mol
-----------------------------------------------------------------------
Total correction                          0.04025911 Eh      25.26 kcal/mol


--------
ENTHALPY
--------

The enthalpy is H = U + kB*T
                kB is Boltzmann's constant
Total thermal energy              ...  -3073.15576249 Eh 
Thermal Enthalpy correction       ...      0.00094421 Eh       0.59 kcal/mol
-----------------------------------------------------------------------
Total Enthalpy                    ...  -3073.15481828 Eh


Note: Only C1 symmetry has been detected, increase convergence thresholds 
      if your molecule has a higher symmetry. Symmetry factor of 1.0 is   
      used for the rotational entropy correction. 
 

Note: Rotational entropy computed according to Herzberg 
Infrared and Raman Spectra, Chapter V,1, Van Nostrand Reinhold, 1945 
Point Group:  C1, Symmetry Number:   1  
Rotational constants in cm-1:     4.720287     0.029790     0.029783 

Vibrational entropy computed according to the QRRHO of S. Grimme
Chem.Eur.J. 2012 18 9955 using a reference frequency of 100.0 cm-1


-------
ENTROPY
-------

The entropy contributions are T*S = T*(S(el)+S(vib)+S(rot)+S(trans))
     S(el)   - electronic entropy
     S(vib)  - vibrational entropy
     S(rot)  - rotational entropy
     S(trans)- translational entropy
The entropies will be listed as multiplied by the temperature to get
units of energy

Electronic entropy                ...      0.00000000 Eh      0.00 kcal/mol
Vibrational entropy               ...      0.00371866 Eh      2.33 kcal/mol
Rotational entropy                ...      0.01209576 Eh      7.59 kcal/mol
Translational entropy             ...      0.01924704 Eh     12.08 kcal/mol
-----------------------------------------------------------------------
Final entropy term                ...      0.03506146 Eh     22.00 kcal/mol

In case the symmetry of your molecule has not been determined correctly
or in case you have a reason to use a different symmetry number we print 
out the resulting rotational entropy values for sn=1,12:

 non-linear molecules -----------------------------------
|  sn= 1 | S(rot)=       0.01209576 Eh      7.59 kcal/mol|
|  sn= 2 | S(rot)=       0.01144130 Eh      7.18 kcal/mol|
|  sn= 3 | S(rot)=       0.01105847 Eh      6.94 kcal/mol|
|  sn= 4 | S(rot)=       0.01078685 Eh      6.77 kcal/mol|
|  sn= 5 | S(rot)=       0.01057616 Eh      6.64 kcal/mol|
|  sn= 6 | S(rot)=       0.01040402 Eh      6.53 kcal/mol|
|  sn= 7 | S(rot)=       0.01025847 Eh      6.44 kcal/mol|
|  sn= 8 | S(rot)=       0.01013239 Eh      6.36 kcal/mol|
|  sn= 9 | S(rot)=       0.01002118 Eh      6.29 kcal/mol|
|  sn=10 | S(rot)=       0.00992170 Eh      6.23 kcal/mol|
|  sn=11 | S(rot)=       0.00983171 Eh      6.17 kcal/mol|
|  sn=12 | S(rot)=       0.00974956 Eh      6.12 kcal/mol|
 linear molecules ---------------------------------------
|  Dinfh | S(rot)=       0.00864350 Eh      5.42 kcal/mol|
|  Cinfv | S(rot)=       0.00929796 Eh      5.83 kcal/mol|
 --------------------------------------------------------


-------------------
GIBBS FREE ENERGY
-------------------

The Gibbs free energy is G = H - T*S

Total enthalpy                    ...  -3073.15481828 Eh 
Total entropy correction          ...     -0.03506146 Eh    -22.00 kcal/mol
-----------------------------------------------------------------------
Final Gibbs free energy         ...  -3073.18987974 Eh

For completeness - the Gibbs free energy minus the electronic energy
G-E(el)                           ...      0.00614186 Eh      3.85 kcal/mol


Maximum memory used throughout the entire PROP-calculation: 30.4 MB
Actual Hessian File stored as input.001.hess
------------------------------------------------------------------------------
                         ORCA GEOMETRY RELAXATION STEP
------------------------------------------------------------------------------

Reading the OPT-File                    .... done
Getting information on internals        .... done
Copying old internal coords+grads       .... done
Making the new internal coordinates     .... (2022 redundants) done
Validating the new internal coordinates .... (2022 redundants) done
Calculating the B-matrix                .... done
Calculating the G,G- and P matrices     .... done
Transforming gradient to internals      .... done
Projecting the internal gradient        .... done
Number of atoms                         ....   6
Number of internal coordinates          ....  17
Current Energy                          .... -3073.196021603 Eh
Current gradient norm                   ....     0.018578797 Eh/bohr
Maximum allowed component of the step   ....  0.300
Current trust radius                    ....  0.300
Evaluating the initial hessian          ....  (read) 
(Reading Exact Hessian)...  
InHessName: input.hess	The file <input.hess> is opened as a .hess file
done
done
Projecting the Hessian                  .... done
Diagonalizing the Hessian               .... done
Dimension of the hessian                ....  17
Lowest eigenvalues of the Hessian:
 -0.013499419  0.012328622  0.012477051  0.014842238  0.074129633
Hessian has   1 negative eigenvalues
Taking P-RFO step
Searching for lambda that maximizes along the lowest mode
TS mode is mode number   0 with eigenvalue  -0.01349942 and components:
   1.   -0.54061761
   2.    0.00163719
   3.   -0.00011272
   4.    0.00226507
   5.    0.00979406
   6.    0.01202129
   7.    0.56218519
   8.    0.08795732
   9.    0.24752095
  10.   -0.03052914
  11.    0.24534047
  12.   -0.03223152
  13.   -0.02882604
  14.   -0.26444929
  15.   -0.22876015
  16.   -0.26177879
  17.    0.26199711

Lambda that maximizes along the TS mode:       0.00017674
Searching for lambda that minimizes along all other modes
In cycle   1: lambdaN =  -0.00271385   step =   0.00271385
In cycle   2: lambdaN =  -0.00272703   step =   0.00001318
In cycle   3: lambdaN =  -0.00272703   step =   0.00000000
Lambda that minimizes along all other modes:  -0.00272703
The final length of the internal step   ....       0.2386
Converting the step to Cartesian space:
 Initial RMS(Int)=    0.0578654892
Transforming coordinates:
 Iter   0:  RMS(Cart)=    0.0491447398 RMS(Int)=    0.0583089771
 Iter   5:  RMS(Cart)=    0.0000000207 RMS(Int)=    0.0000000245
done
Storing new coordinates                 .... done

                                .--------------------.
          ----------------------|Geometry convergence|-------------------------
          Item                value                   Tolerance       Converged
          ---------------------------------------------------------------------
          RMS gradient        0.0041521755            0.0001000000      NO
          MAX gradient        0.0092993516            0.0003000000      NO
          RMS step            0.0578654892            0.0020000000      NO
          MAX step            0.1206914218            0.0040000000      NO
          -------------------------------------------------------------------------
          ........................................................
          Max(Bonds)      0.0639      Max(Angles)    4.91
          Max(Dihed)        0.00      Max(Improp)    0.00
          ---------------------------------------------------------------------

The optimization has not yet converged - more geometry cycles are needed


    ---------------------------------------------------------------------------
                         Redundant Internal Coordinates
                            (Angstroem and degrees)

        Definition                    Value    dE/dq     Step     New-Value  comp.(TS mode)
    ----------------------------------------------------------------------------
     1. B(Br  1,C   0)                2.3672 -0.009299  0.0216    2.3888          0.54
     2. B(H   2,C   0)                1.0792 -0.006260  0.0101    1.0893   
     3. B(H   3,C   0)                1.0856 -0.003602  0.0037    1.0893   
     4. B(H   4,C   0)                1.0792 -0.007104  0.0102    1.0894   
     5. B(Cl  5,H   4)                2.5329 -0.001770  0.0507    2.5836   
     6. B(Cl  5,H   2)                2.5700 -0.000408  0.0188    2.5888   
     7. B(Cl  5,C   0)                2.3797 -0.001536  0.0639    2.4436          0.56
     8. B(Cl  5,H   3)                2.6325  0.001274 -0.0243    2.6082   
     9. A(Br  1,C   0,H   3)           91.30 -0.001557    3.07     94.37   
    10. A(H   2,C   0,H   3)          124.23  0.006448   -4.71    119.52   
    11. A(Br  1,C   0,H   4)           92.06 -0.002919    2.81     94.87   
    12. A(H   2,C   0,H   4)          119.64 -0.000004   -0.04    119.60   
    13. A(H   3,C   0,H   4)          115.76 -0.005798    3.76    119.52   
[...]
X-ray spectroscopy properties:
SCF XES/XAS/RIXS spectra                ...  NO

SCF SOC stabilization energy            ...  NO
Diagonal Born-Oppenheimer correction    ...  NO

-------------
DIPOLE MOMENT
-------------

Method             : SCF
Type of density    : Electron Density
Multiplicity       :   1
Irrep              :   0
Energy             : -3073.1934246251171317 Eh
Basis              : AO
                                X                 Y                 Z
Electronic contribution:     14.638199613      -0.240693371      -2.030623280
Nuclear contribution   :    -12.810845622       0.210273479       1.777399807
                        -----------------------------------------
Total Dipole Moment    :      1.827353991      -0.030419891      -0.253223473
                        -----------------------------------------
Magnitude (a.u.)       :      1.845066423
Magnitude (Debye)      :      4.689786145



--------------------
Rotational spectrum 
--------------------
 
Rotational constants in cm-1:             4.728310             0.028576             0.028576 
Rotational constants in MHz :        141751.169886           856.693929           856.693775 

Dipole components along the rotational axes: 
x,y,z [a.u.] :    -1.845066     0.000193     0.000186 
x,y,z [Debye]:    -4.689786     0.000491     0.000473 

 

Dipole moment calculation done in   0.0 sec 

-----------
SCF HESSIAN
-----------

Occupied/Occupied contributions to the Hessian:
   => Occupied/Occupied contributions              ... done (  0.0 sec)
Perturbed density contributions to the Hessian:
   => Perturbed density contributions              ... done (  0.0 sec)
Explicit contributions to the Hessian:
   => Nuclear repulsion Hessian                    ... done (  0.0 sec)
   => HCore and overlap Hessian                    ... done (  0.2 sec)
   => RI-J Hessian                                 ... done (  0.6 sec)
   => XC-Hessian                                   ... done (  1.8 sec)
   => Van der Waals-Hessian                        ... done (  0.5 sec)
   => Explicit contributions done
Dipole derivatives                                 ... done (  0.0 sec)
Mass weighting the Hessian           ... done
Calculating normal modes             ... done
Scaling frequencies                  ... done

-----------------------
VIBRATIONAL FREQUENCIES
-----------------------

Scaling factor for frequencies =  1.000000000  (already applied!)

     0:       0.00 cm**-1
     1:       0.00 cm**-1
     2:       0.00 cm**-1
     3:       0.00 cm**-1
     4:       0.00 cm**-1
     5:       0.00 cm**-1
     6:    -273.24 cm**-1  ***imaginary mode***
     7:     167.73 cm**-1
     8:     167.85 cm**-1
     9:     170.43 cm**-1
    10:     786.19 cm**-1
    11:     786.48 cm**-1
    12:     853.20 cm**-1
    13:    1306.72 cm**-1
    14:    1307.09 cm**-1
    15:    3111.83 cm**-1
    16:    3323.06 cm**-1
    17:    3323.11 cm**-1


------------
NORMAL MODES
------------

These modes are the Cartesian displacements weighted by the diagonal matrix
M(i,i)=1/sqrt(m[i]) where m[i] is the mass of the displaced atom
Thus, these vectors are normalized but *not* orthogonal

                  0          1          2          3          4          5    
      0       0.000000   0.000000   0.000000   0.000000   0.000000   0.000000
      1       0.000000   0.000000   0.000000   0.000000   0.000000   0.000000
      2       0.000000   0.000000   0.000000   0.000000   0.000000   0.000000
      3       0.000000   0.000000   0.000000   0.000000   0.000000   0.000000
      4       0.000000   0.000000   0.000000   0.000000   0.000000   0.000000
      5       0.000000   0.000000   0.000000   0.000000   0.000000   0.000000
      6       0.000000   0.000000   0.000000   0.000000   0.000000   0.000000
      7       0.000000   0.000000   0.000000   0.000000   0.000000   0.000000
      8       0.000000   0.000000   0.000000   0.000000   0.000000   0.000000
      9       0.000000   0.000000   0.000000   0.000000   0.000000   0.000000
     10       0.000000   0.000000   0.000000   0.000000   0.000000   0.000000
     11       0.000000   0.000000   0.000000   0.000000   0.000000   0.000000
     12       0.000000   0.000000   0.000000   0.000000   0.000000   0.000000
     13       0.000000   0.000000   0.000000   0.000000   0.000000   0.000000
     14       0.000000   0.000000   0.000000   0.000000   0.000000   0.000000
     15       0.000000   0.000000   0.000000   0.000000   0.000000   0.000000
     16       0.000000   0.000000   0.000000   0.000000   0.000000   0.000000
     17       0.000000   0.000000   0.000000   0.000000   0.000000   0.000000
                  6          7          8          9         10         11    
      0       0.964427   0.066188   0.015709  -0.154668  -0.001771   0.003509
      1      -0.016533  -0.070227   0.479643  -0.064619  -0.026548  -0.010212
      2      -0.133345   0.475235   0.069361   0.061237  -0.010073   0.026277
      3      -0.078260  -0.010457   0.003713   0.397390   0.000265  -0.000537
      4       0.001334   0.006734  -0.045606  -0.000194   0.004350   0.001671
      5       0.010823  -0.044522  -0.007304  -0.058878   0.001652  -0.004315
      6      -0.050809   0.099658   0.077182  -0.168568   0.783473  -0.208921
      7      -0.063115  -0.071489   0.492343  -0.060675   0.030476   0.027973
      8      -0.037981   0.483686   0.065266   0.067940  -0.095829  -0.025279
      9      -0.045217   0.105342  -0.042137  -0.153407  -0.557517  -0.583413
     10       0.070564  -0.074742   0.494464  -0.072910   0.055048   0.020868
     11      -0.025757   0.481248   0.077041   0.065122   0.103927   0.029283
     12      -0.032190   0.000362   0.012055  -0.172340  -0.211601   0.768506
     13      -0.007203  -0.070361   0.491799  -0.065367   0.059942   0.007459
     14       0.082816   0.499766   0.071771   0.058224   0.046638  -0.147490
     15      -0.146715  -0.004695  -0.015029  -0.829140  -0.000405   0.000700
     16       0.002588   0.014773  -0.101755   0.027985  -0.004946  -0.001906
     17       0.020242  -0.102308  -0.013124   0.106508  -0.001866   0.004903
                 12         13         14         15         16         17    
      0      -0.008143  -0.010142   0.007452   0.011003  -0.013461  -0.004243
      1       0.000178   0.044797   0.079105  -0.000176  -0.041836   0.092996
      2       0.001240  -0.078468   0.044186  -0.001579  -0.092039  -0.041649
      3      -0.010935  -0.000004   0.000002  -0.000124   0.000018   0.000006
      4       0.000173   0.000009   0.000018   0.000002   0.000056  -0.000125
      5       0.001502  -0.000017   0.000010   0.000017   0.000124   0.000056
      6       0.571483   0.072999   0.095139   0.009331   0.003303  -0.003359
      7       0.027504  -0.471182   0.020406   0.469713   0.573057  -0.327577
      8      -0.053033   0.642855   0.105293   0.335823   0.403224  -0.247365
      9       0.571520  -0.004687  -0.134715  -0.019755  -0.001764  -0.036303
     10      -0.050710   0.260664  -0.223948  -0.522939  -0.009028  -0.734394
     11      -0.060673   0.404850  -0.600823   0.244323  -0.008829   0.344431
     12       0.566439   0.052145  -0.048880  -0.121843   0.156246   0.089408
     13      -0.005341  -0.320427  -0.733965   0.055305  -0.073610  -0.028202
     14      -0.124176  -0.117752  -0.028236  -0.561185   0.684550   0.391175
     15      -0.021201   0.000021  -0.000015   0.000312   0.000033   0.000010
     16       0.000362  -0.000102  -0.000185  -0.000005   0.000103  -0.000229
     17       0.002959   0.000182  -0.000099  -0.000043   0.000227   0.000103


-----------
IR SPECTRUM
-----------

 Mode   freq       eps      Int      T**2         TX        TY        TZ
       cm**-1   L/(mol*cm) km/mol    a.u.
----------------------------------------------------------------------------
  7:    167.73   0.001142    5.77  0.002125  ( 0.005018 -0.006652  0.045340)
  8:    167.85   0.001141    5.77  0.002122  ( 0.003118  0.045515  0.006364)
  9:    170.43   0.000417    2.11  0.000764  ( 0.027405 -0.002538 -0.002565)
 10:    786.19   0.000244    1.23  0.000097  ( 0.000580  0.009177  0.003493)
 11:    786.48   0.000245    1.24  0.000097  (-0.001079  0.003540 -0.009133)
 12:    853.20   0.004322   21.84  0.001581  (-0.039389  0.000614  0.005388)
 13:   1306.72   0.000719    3.63  0.000172  ( 0.001466 -0.006442  0.011312)
 14:   1307.09   0.000717    3.63  0.000171  (-0.001062 -0.011381 -0.006374)
 15:   3111.83   0.000002    0.01  0.000000  (-0.000485  0.000042  0.000046)
 16:   3323.06   0.000271    1.37  0.000025  ( 0.000664  0.002046  0.004563)
 17:   3323.11   0.000269    1.36  0.000025  ( 0.000215 -0.004592  0.002042)

* The epsilon (eps) is given for a Dirac delta lineshape.
** The dipole moment derivative (T) already includes vibrational overlap.

The first frequency considered to be a vibration is 7
The total number of vibrations considered is 11


--------------------------
THERMOCHEMISTRY AT 298.15K
--------------------------

Temperature         ...   298.15 K
Pressure            ...     1.00 atm
Total Mass          ...   130.39 AMU
Quasi RRHO          ...     True
Cut-Off Frequency   ...     1.00 cm^-1

Throughout the following assumptions are being made:
  (1) The electronic state is orbitally nondegenerate
  (2) There are no thermally accessible electronically excited states
  (3) Hindered rotations indicated by low frequency modes are not
      treated as such but are treated as vibrations and this may
      cause some error
  (4) All equations used are the standard statistical mechanics
      equations for an ideal gas
  (5) All vibrations are strictly harmonic

freq.     167.73  E(vib)   ...       0.38 
freq.     167.85  E(vib)   ...       0.38 
freq.     170.43  E(vib)   ...       0.38 
freq.     786.19  E(vib)   ...       0.05 
freq.     786.48  E(vib)   ...       0.05 
freq.     853.20  E(vib)   ...       0.04 
freq.    1306.72  E(vib)   ...       0.01 
freq.    1307.09  E(vib)   ...       0.01 
freq.    3111.83  E(vib)   ...       0.00 
freq.    3323.06  E(vib)   ...       0.00 
freq.    3323.11  E(vib)   ...       0.00 

------------
INNER ENERGY
------------

The inner energy is: U= E(el) + E(ZPE) + E(vib) + E(rot) + E(trans)
    E(el)   - is the total energy from the electronic structure calculation
              = E(kin-el) + E(nuc-el) + E(el-el) + E(nuc-nuc)
    E(ZPE)  - the the zero temperature vibrational energy from the frequency calculation
    E(vib)  - the the finite temperature correction to E(ZPE) due to population
              of excited vibrational states
    E(rot)  - is the rotational thermal energy
    E(trans)- is the translational thermal energy

Summary of contributions to the inner energy U:
Electronic energy                ...  -3073.19734586 Eh
Zero point energy                ...      0.03486436 Eh      21.88 kcal/mol
Thermal vibrational correction   ...      0.00208560 Eh       1.31 kcal/mol
Thermal rotational correction    ...      0.00141627 Eh       0.89 kcal/mol
Thermal translational correction ...      0.00141627 Eh       0.89 kcal/mol
-----------------------------------------------------------------------
Total thermal energy                  -3073.15756336 Eh


Summary of corrections to the electronic energy:
(perhaps to be used in another calculation)
Total thermal correction                  0.00491814 Eh       3.09 kcal/mol
Non-thermal (ZPE) correction              0.03486436 Eh      21.88 kcal/mol
-----------------------------------------------------------------------
Total correction                          0.03978250 Eh      24.96 kcal/mol


--------
ENTHALPY
--------

The enthalpy is H = U + kB*T
                kB is Boltzmann's constant
Total thermal energy              ...  -3073.15756336 Eh 
Thermal Enthalpy correction       ...      0.00094421 Eh       0.59 kcal/mol
-----------------------------------------------------------------------
Total Enthalpy                    ...  -3073.15661916 Eh


Note: Only C1 symmetry has been detected, increase convergence thresholds 
      if your molecule has a higher symmetry. Symmetry factor of 1.0 is   
      used for the rotational entropy correction. 
 

Note: Rotational entropy computed according to Herzberg 
Infrared and Raman Spectra, Chapter V,1, Van Nostrand Reinhold, 1945 
Point Group:  C1, Symmetry Number:   1  
Rotational constants in cm-1:     4.728314     0.028576     0.028576 

Vibrational entropy computed according to the QRRHO of S. Grimme
Chem.Eur.J. 2012 18 9955 using a reference frequency of 100.0 cm-1


-------
ENTROPY
-------

The entropy contributions are T*S = T*(S(el)+S(vib)+S(rot)+S(trans))
     S(el)   - electronic entropy
     S(vib)  - vibrational entropy
     S(rot)  - rotational entropy
     S(trans)- translational entropy
The entropies will be listed as multiplied by the temperature to get
units of energy

Electronic entropy                ...      0.00000000 Eh      0.00 kcal/mol
Vibrational entropy               ...      0.00378788 Eh      2.38 kcal/mol
Rotational entropy                ...      0.01213412 Eh      7.61 kcal/mol
Translational entropy             ...      0.01924704 Eh     12.08 kcal/mol
-----------------------------------------------------------------------
Final entropy term                ...      0.03516904 Eh     22.07 kcal/mol

In case the symmetry of your molecule has not been determined correctly
or in case you have a reason to use a different symmetry number we print 
out the resulting rotational entropy values for sn=1,12:

 non-linear molecules -----------------------------------
|  sn= 1 | S(rot)=       0.01213412 Eh      7.61 kcal/mol|
|  sn= 2 | S(rot)=       0.01147966 Eh      7.20 kcal/mol|
|  sn= 3 | S(rot)=       0.01109683 Eh      6.96 kcal/mol|
|  sn= 4 | S(rot)=       0.01082520 Eh      6.79 kcal/mol|
|  sn= 5 | S(rot)=       0.01061452 Eh      6.66 kcal/mol|
|  sn= 6 | S(rot)=       0.01044237 Eh      6.55 kcal/mol|
|  sn= 7 | S(rot)=       0.01029683 Eh      6.46 kcal/mol|
|  sn= 8 | S(rot)=       0.01017075 Eh      6.38 kcal/mol|
|  sn= 9 | S(rot)=       0.01005954 Eh      6.31 kcal/mol|
|  sn=10 | S(rot)=       0.00996006 Eh      6.25 kcal/mol|
|  sn=11 | S(rot)=       0.00987007 Eh      6.19 kcal/mol|
|  sn=12 | S(rot)=       0.00978792 Eh      6.14 kcal/mol|
 linear molecules ---------------------------------------
|  Dinfh | S(rot)=       0.00868254 Eh      5.45 kcal/mol|
|  Cinfv | S(rot)=       0.00933700 Eh      5.86 kcal/mol|
 --------------------------------------------------------


-------------------
GIBBS FREE ENERGY
-------------------

The Gibbs free energy is G = H - T*S

Total enthalpy                    ...  -3073.15661916 Eh 
Total entropy correction          ...     -0.03516904 Eh    -22.07 kcal/mol
-----------------------------------------------------------------------
Final Gibbs free energy         ...  -3073.19178819 Eh

For completeness - the Gibbs free energy minus the electronic energy
G-E(el)                           ...      0.00555767 Eh      3.49 kcal/mol


Maximum memory used throughout the entire PROP-calculation: 30.4 MB

--------------------------------
SUGGESTED CITATIONS FOR THIS RUN
--------------------------------

Below you find a list of papers that are relevant to this ORCA run
We neither can nor want to force you to cite these papers, but we appreciate if you do
You receive ORCA, which is the product of decades of hard work by many enthusiastic individuals, for free
The only thing we kindly ask in return is that you cite our papers,
We deeply appreciate it, if you show your appreciation for ORCA by not just citing the generic ORCA reference.

Please note that relegating all ORCA citations to the supporting information does *not* help us.
SI sections are not indexed - citations you put there will not count into any citation statistics
But we need these citations in order to attract the funding resources that allow us to do what we are doing

Therefore, if you are a happy ORCA user, please consider citing a few of the papers listed below in the main body of your paper

In addition to the list printed below, the program has created the file input.bibtex that contains the list in bibtex format
You can import this file easily into all common literature databanks and citation aid programs


List of essential papers. We consider these as the minimum necessary citations

  1. Neese, F.
     Software update: the ORCA program system, version 6.0
     WIRES Comput. Molec. Sci. 2025 15(1), e70019
     doi.org/10.1002/wcms.7019

List of papers to cite with high priority. The work reported in these papers was absolutely
necessary for this run to complete.
Our perspective: the developers of density functionals and basis sets usually get cited in chemistry papers
Good! But without the algorithms to do something with them, the functionals or basis sets would not do anything.
Hence, in our opinion, the algorithm design and method developments papers are equally worthy of getting cited

  1. Neese, F.
     An improvement of the resolution of the identity approximation for the formation of the Coulomb matrix
     J. Comp. Chem. 2003 24(14), 1740-1747
     doi.org/10.1002/jcc.10318
  2. Grimme, S.; Antony, J.; Ehrlich, S.; Krieg, H.
     A consistent and accurate ab initio parametrization of density functional dispersion correction (DFT-D) for the 94 elements H-Pu
     J. Chem. Phys. 2010 132 , 154104
     doi.org/10.1063/1.3382344
  3. Grimme, S.; Ehrlich, S.; Goerigk, L.
     Effect of the damping function in dispersion corrected density functional theory
     J. Comput. Chem. 2011 32(7), 1456-1465
     doi.org/10.1002/jcc.21759
  4. Bykov, D.; Petrenko, T.; Izsak, R.; Kossmann, S.; Becker, U.; Valeev, E.; Neese, F.
     Efficient implementation of the analytic second derivatives of Hartree-Fock and hybrid DFT energies: a detailed analysis of different approximations
     Molec. Phys. 2015 113 , 1961-1977
     doi.org/10.1080/00268976.2015.1025114
  5. Neese, F.
     The SHARK Integral Generation and Digestion System
     J. Comp. Chem. 2022 44(3), 381
     doi.org/10.1002/jcc.26942

List of suggested additional citations. These are papers that are important in the 'surrounding' of 
of this run, or papers that preceded the highly important papers. If you like your results we are grateful for a citation.

  1. Neese, F.
     The ORCA program system
     WIRES Comput. Molec. Sci. 2012 2(1), 73-78
     doi.org/10.1002/wcms.81
  2. Neese, F.
     Software update: the ORCA program system, version 4.0
     WIRES Comput. Molec. Sci. 2018 8(1), 1-6
     doi.org/10.1002/wcms.1327
  3. Neese, F.; Wennmohs, F.; Becker, U.; Riplinger, C.
     The ORCA quantum chemistry program package
     J. Chem. Phys. 2020 152(22), 224108
     doi.org/10.1063/5.0004608
  4. Neese, F.
     Software update: The ORCA program system—Version 5.0
     WIRES Comput. Molec. Sci. 2022 12(1), e1606
     doi.org/10.1002/wcms.1606

List of optional additional citations

  1. Neese, F.
     Approximate second-order SCF convergence for spin unrestricted wavefunctions
     Chem. Phys. Lett. 2000 325(1-3), 93-98
     doi.org/10.1016/s0009-2614(00)00662-x

Timings for individual modules:

Sum of individual times          ...       38.069 sec (=   0.634 min)
Startup calculation              ...        6.307 sec (=   0.105 min)  16.6 %
SCF iterations                   ...       13.974 sec (=   0.233 min)  36.7 %
Property integrals               ...        3.812 sec (=   0.064 min)  10.0 %
SCF Response                     ...        3.093 sec (=   0.052 min)   8.1 %
Property calculations            ...        4.272 sec (=   0.071 min)  11.2 %
SCF Gradient evaluation          ...        6.600 sec (=   0.110 min)  17.3 %
Geometry relaxation              ...        0.011 sec (=   0.000 min)   0.0 %
                             ****ORCA TERMINATED NORMALLY****
TOTAL RUN TIME: 0 days 0 hours 0 minutes 49 seconds 125 msec
