
                                 *****************
                                 * O   R   C   A *
                                 *****************

                                            #,                                       
                                            ###                                      
                                            ####                                     
                                            #####                                    
                                            ######                                   
                                           ########,                                 
                                     ,,################,,,,,                         
                               ,,#################################,,                 
                          ,,##########################################,,             
                       ,#########################################, ''#####,          
                    ,#############################################,,   '####,        
                  ,##################################################,,,,####,       
                ,###########''''           ''''###############################       
              ,#####''   ,,,,##########,,,,          '''####'''          '####       
            ,##' ,,,,###########################,,,                        '##       
           ' ,,###''''                  '''############,,,                           
         ,,##''                                '''############,,,,        ,,,,,,###''
      ,#''                                            '''#######################'''  
     '                                                          ''''####''''         
             ,#######,   #######,   ,#######,      ##                                
            ,#'     '#,  ##    ##  ,#'     '#,    #''#        ,####,   ,####,        
            ##       ##  ##   ,#'  ##            #'  '#       #'       #'  '#        
            ##       ##  #######   ##           ,######,      #####,   #    #        
            '#,     ,#'  ##    ##  '#,     ,#' ,#      #,     #,   #   #,  ,#        
             '#######'   ##     ##  '#######'  #'      '#     '####' # '####'        



                #########################################################
                #                        -***-                          #
                #          Department of theory and spectroscopy        #
                #                                                       #
                #                      Frank Neese                      #
                #                                                       #
                #     Directorship, Architecture, Infrastructure        #
                #                    SHARK, DRIVERS                     #
                #        Core code/Algorithms in most modules           #
                #                                                       #
                #        Max Planck Institute fuer Kohlenforschung      #
                #                Kaiser Wilhelm Platz 1                 #
                #                 D-45470 Muelheim/Ruhr                 #
                #                      Germany                          #
                #                                                       #
                #                  All rights reserved                  #
                #                        -***-                          #
                #########################################################


                         Program Version 6.0.1  -  RELEASE   -


 With contributions from (in alphabetic order):
[Max-Planck-Institut fuer Kohlenforschung]                               
  Daniel Aravena         : Magnetic Suceptibility                        
  Michael Atanasov       : Ab Initio Ligand Field Theory (pilot matlab implementation)
  Alexander A. Auer      : GIAO ZORA, VPT2 properties, NMR spectrum      
  Ute Becker             : All parallelization in ORCA, NUMFREQ, NUMCALC 
  Giovanni Bistoni       : ED, misc. LED, open-shell LED, HFLD           
  Martin Brehm           : Molecular dynamics                            
  Dmytro Bykov           : pre 5.0 version of the SCF Hessian            
  Marcos Casanova-Páez   : Triplet and SCS-CIS(D). UHF-(DLPNO)-IP/EA/STEOM-CCSD. UHF-CVS-IP/STEOM-CCSD   
  Vijay G. Chilkuri      : MRCI spin determinant printing, contributions to CSF-ICE 
  Pauline Colinet        : FMM embedding                                 
  Dipayan Datta          : RHF DLPNO-CCSD density                        
  Achintya Kumar Dutta   : EOM-CC, STEOM-CC                              
  Nicolas Foglia         : Exact transition moments, OPA infrastructure, MCD improvements    
  Dmitry Ganyushin       : Spin-Orbit,Spin-Spin,Magnetic field MRCI      
  Miquel Garcia-Rates    : C-PCM and meta-GGA Hessian, CCSD/C-PCM, Gaussian charge scheme 
  Tiago L. C. Gouveia    : GS-ROHF, GS-ROCIS                             
  Yang Guo               : DLPNO-NEVPT2, F12-NEVPT2, CIM, IAO-localization        
  Andreas Hansen         : Spin unrestricted coupled pair/coupled cluster methods 
  Ingolf Harden          : AUTO-CI MPn and infrastructure                
  Benjamin Helmich-Paris : MC-RPA, TRAH-(SCF,CASSCF), AVAS, COSX integrals, SCF dyn. polar. 
  Lee Huntington         : MR-EOM, pCC                                   
  Robert Izsak           : Overlap fitted RIJCOSX, COSX-SCS-MP3, EOM     
  Riya Kayal             : Wick's Theorem for AUTO-CI, AUTO-CI UHF-CCSDT 
  Emily Kempfer          : AUTO-CI, RHF CISDT and CCSDT                  
  Christian Kollmar      : KDIIS, OOCD, Brueckner-CCSD(T), CCSD density, CASPT2, CASPT2-K, improved NEVPT2 
  Axel Koslowski         : Symmetry handling                             
  Simone Kossmann        : meta-GGA functionals, TD-DFT gradient, OOMP2, (MP2 Hessian; deprecated post 5.0) 
  Lucas Lang             : DCDCAS                                        
  Marvin Lechner         : AUTO-CI (C++ implementation), FIC-MRCC        
  Spencer Leger          : CASSCF response                               
  Dagmar Lenk            : GEPOL surface, SMD, ORCA-2-JSON               
  Dimitrios Liakos       : Extrapolation schemes; Compound Job, initial MDCI parallelization 
  Dimitrios Manganas     : Further ROCIS development; embedding schemes. LFT, Crystal Embedding 
  Dimitrios Pantazis     : SARC Basis sets                               
  Anastasios Papadopoulos: AUTO-CI, single reference methods and gradients 
  Taras Petrenko         : pre 6.0 DFT Hessian and TD-DFT gradient, (ASA, deprecated), ECA, 1-Electron XAS/XES, NRVS 
  Peter Pinski           : DLPNO-MP2, DLPNO-MP2 Gradient                 
  Christoph Reimann      : Effective Core Potentials                     
  Marius Retegan         : Local ZFS, SOC                                
  Christoph Riplinger    : Optimizer, TS searches, QM/MM, DLPNO-CCSD(T), (RO)-DLPNO pert. Triples 
  Michael Roemelt        : Original ROCIS implementation                 
  Masaaki Saitow         : Open-shell DLPNO-CCSD energy and density      
  Barbara Sandhoefer     : DKH picture change effects                    
  Kantharuban Sivalingam : CASSCF convergence/infrastructure, NEVPT2 and variants, FIC-MRCI 
  Bernardo de Souza      : ESD, SOC TD-DFT                               
  Georgi L. Stoychev     : AutoAux, RI-MP2 NMR, DLPNO-MP2 response, X2C  
  Van Anh Tran           : RI-MP2 g-tensors                              
  Willem Van den Heuvel  : Paramagnetic NMR                              
  Zikuan Wang            : NOTCH, Electric field optimization            
  Frank Wennmohs         : Technical directorship and infrastructure     
  Hang Xu                : AUTO-CI-Response properties                   
                                                                         
[FACCTs GmbH]                                                            
  Markus Bursch, Miquel Garcia-Rates, Christoph Riplinger, Bernardo de Souza, Georgi L. Stoychev 
                                                                 
  APM, Basis sets (HGBS, AHGBS, def-TZVP (Ac-Lr), def2-XVPD (La-Lu)), CI-OPT, improved COSX, DLPNO-Multilevel,           
  DOCKER, DRACO, updates on ESD, GOAT, IRC, LR-CPCM, MBIS, meta-GGA TD-DFT gradient, ML-optimized integration grids, 
  MM, NACMEs, nearIR, NEB, NEB-TS, NL-DFT gradient (VV10), 2- and 3-layer-ONIOM, interface openCOSMO-RS, QMMM,   
  Crystal-QMMM, SF, symmetry and pop. for TD-DFT, r2SCAN hybrids, SOLVATOR                                   
                                                                         
[Other institutions]                                                     
  V. Asgeirsson          : NEB                                           
  Christoph Bannwarth    : sTDA-DFT, sTD-DFT, PBEh-3c, B97-3c, D3        
  Sebastian Ehlert       : rSCAN, r2SCAN, r2SCAN-3c, D4, dhf basis sets  
  Marvin Friede          : D4 for Fr, Ra, Ac-Lr                          
  Lars Goerigk           : TD-DFT with DH, B97 family of functionals     
  Stefan Grimme          : VdW corrections, initial TS optimization, DFT functionals, gCP, sTDA/sTD-DF 
  Waldemar Hujo          : DFT-NL                                        
  H. Jonsson             : NEB                                           
  Holger Kruse           : gCP                                           
  Marcel Mueller         : wB97X-3c, vDZP basis set                      
  Hagen Neugebauer       : wr2SCAN                                       
  Tobias Risthaus        : range-separated hybrid DFT                    
  Lukas Wittmann         : regularized MP2, r2SCAN double-hybrids, wr2SCAN        
                                                                         
We gratefully acknowledge several colleagues who have allowed us to      
interface, adapt or use parts of their codes:                            
  Ed Valeev, F. Pavosevic, A. Kumar             : LibInt (2-el integral package), F12 methods 
  Garnet Chan, S. Sharma, J. Yang, R. Olivares  : DMRG                   
  Ulf Ekstrom                                   : XCFun DFT Library      
  Mihaly Kallay                                 : mrcc  (arbitrary order and MRCC methods)
  Frank Weinhold                                : gennbo (NPA and NBO analysis)           
  Simon Mueller                                 : openCOSMO-RS                            
  Christopher J. Cramer and Donald G. Truhlar   : smd solvation model                     
  S Lehtola, MJT Oliveira, MAL Marques          : LibXC Library                           
  Liviu Ungur et al                             : ANISO software                          


 Your calculation uses the libint2 library for the computation of 2-el integrals
 For citations please refer to: http://libint.valeyev.net

 Your ORCA version has been built with support for libXC version: 6.2.2
 For citations please refer to: https://libxc.gitlab.io

 This ORCA versions uses:
   CBLAS   interface :  Fast vector & matrix operations
   LAPACKE interface :  Fast linear algebra routines
   SCALAPACK package :  Parallel linear algebra routines
   Shared memory     :  Shared parallel matrices
   BLAS/LAPACK       :  OpenBLAS 0.3.27  USE64BITINT DYNAMIC_ARCH NO_AFFINITY Haswell SINGLE_THREADED
        Core in use  :  Haswell
   Copyright (c) 2011-2014, The OpenBLAS Project


NOTE: MaxCore=750 MB was set to SCF,MP2,MDCI,CIPSI,MRCI and CIS
      => If you want to overwrite this, your respective input block should be placed after the MaxCore statement
Your calculation utilizes the atom-pairwise dispersion correction
with the Becke-Johnson damping scheme (D3BJ)


Warning: RI is on but no J-basis has been assigned. Assigning Def2/J (nothing to worry about!)
================================================================================

----- Orbital basis set information -----
Your calculation utilizes the basis: def2-SVP
   F. Weigend and R. Ahlrichs, Phys. Chem. Chem. Phys. 7, 3297 (2005).

----- AuxJ basis set information -----
Your calculation utilizes the auxiliary basis: def2/J
   F. Weigend, Phys. Chem. Chem. Phys. 8, 1057 (2006).

================================================================================
                                        WARNINGS
                       Please study these warnings very carefully!
================================================================================


WARNING: Geometry Optimization
  ===> : Switching off AutoStart
         For restart on a previous wavefunction, please use MOREAD

================================================================================
                                       INPUT FILE
================================================================================
NAME = opt_TS.inp
|  1> ! PBE def2-SVP D3BJ OptTS TightSCF SlowConv Freq
|  2> 
|  3> %pal
|  4>     nprocs 4
|  5> end
|  6> 
|  7> %maxcore 750
|  8> 
|  9> %geom
| 10>     Calc_Hess true
| 11> end
| 12> 
| 13> *xyz -1 1
| 14>     C    -4.385749529254      1.269519633374      0.011565976389
| 15>     Br   -2.047465069654      1.252802452831     -0.357180764199
| 16>     H    -4.334583957955      2.164377592773      0.612638894366
| 17>     H    -4.354620927320      0.261449600786      0.413228658134
| 18>     H    -4.591033126959      1.347313678570     -1.045064392118
| 19>     Cl   -6.748825362206      1.347965581324      0.281376537872
| 20> *
| 21> 
| 22> 
| 23>                          ****END OF INPUT****
================================================================================

                       *****************************
                       * Geometry Optimization Run *
                       *****************************

Geometry optimization settings:
Update method            Update   .... Bofill
Choice of coordinates    CoordSys .... (2022) Redundant Internals
Initial Hessian          InHess   .... Almloef's Model
Max. no of cycles        MaxIter  .... 50

Convergence Tolerances:
Energy Change            TolE     ....  5.0000e-06 Eh
Max. Gradient            TolMAXG  ....  3.0000e-04 Eh/bohr
RMS Gradient             TolRMSG  ....  1.0000e-04 Eh/bohr
Max. Displacement        TolMAXD  ....  4.0000e-03 bohr
RMS Displacement         TolRMSD  ....  2.0000e-03 bohr
Strict Convergence                .... False

------------------------------------------------------------------------------
                        ORCA OPTIMIZATION COORDINATE SETUP
------------------------------------------------------------------------------

The optimization will be done in redundant internal coordinates (2022)
Making redundant internal coordinates   ...  (2022 redundants) done
Following TS mode number                ...     0
Evaluating the initial hessian          ...  (Is done on the fly) done
Evaluating the coordinates              ...  done
Calculating the B-matrix                .... done
Calculating the G-matrix                .... done
Diagonalizing the G-matrix              .... done
The first mode is                       ....    5
The number of degrees of freedom        ....   12

    -----------------------------------------------------------------
                    Redundant Internal Coordinates


    -----------------------------------------------------------------
         Definition                    Initial Value    d2E/dq (diagonal element)
    -----------------------------------------------------------------
      1. B(Br  1,C   0)                  2.3672         0.000000   
      2. B(H   2,C   0)                  1.0792         0.000000   
      3. B(H   3,C   0)                  1.0856         0.000000   
      4. B(H   4,C   0)                  1.0792         0.000000   
      5. B(Cl  5,H   4)                  2.5329         0.000000   
      6. B(Cl  5,H   2)                  2.5700         0.000000   
      7. B(Cl  5,C   0)                  2.3797         0.000000   
      8. B(Cl  5,H   3)                  2.6325         0.000000   
      9. A(Br  1,C   0,H   3)           91.3038         0.000000   
     10. A(H   2,C   0,H   3)          124.2318         0.000000   
     11. A(Br  1,C   0,H   4)           92.0567         0.000000   
     12. A(H   2,C   0,H   4)          119.6409         0.000000   
     13. A(H   3,C   0,H   4)          115.7631         0.000000   
     14. A(H   2,C   0,Cl  5)           87.5125         0.000000   
     15. A(H   3,C   0,Cl  5)           90.9818         0.000000   
     16. A(H   4,C   0,Cl  5)           85.3967         0.000000   
     17. A(Br  1,C   0,H   2)           92.6241         0.000000   
    -----------------------------------------------------------------

Number of atoms                         .... 6
Number of degrees of freedom            .... 17


         *************************************************************
         *                GEOMETRY OPTIMIZATION CYCLE   1            *
         *************************************************************
---------------------------------
CARTESIAN COORDINATES (ANGSTROEM)
---------------------------------
  C     -4.385750    1.269520    0.011566
  Br    -2.047465    1.252802   -0.357181
  H     -4.334584    2.164378    0.612639
  H     -4.354621    0.261450    0.413229
  H     -4.591033    1.347314   -1.045064
  Cl    -6.748825    1.347966    0.281377

----------------------------
CARTESIAN COORDINATES (A.U.)
----------------------------
  NO LB      ZA    FRAG     MASS         X           Y           Z
   0 C     6.0000    0    12.011   -8.287866    2.399044    0.021857
   1 Br   35.0000    0    79.900   -3.869148    2.367454   -0.674974
   2 H     1.0000    0     1.008   -8.191177    4.090081    1.157720
   3 H     1.0000    0     1.008   -8.229041    0.494068    0.780889
   4 H     1.0000    0     1.008   -8.675795    2.546054   -1.974885
   5 Cl   17.0000    0    35.453  -12.753432    2.547286    0.531725

--------------------------------
INTERNAL COORDINATES (ANGSTROEM)
--------------------------------
 C      0   0   0     0.000000000000     0.00000000     0.00000000
 Br     1   0   0     2.367240553224     0.00000000     0.00000000
 H      1   2   0     1.079202175642    92.62409588     0.00000000
 H      1   2   3     1.085590664278    91.30376999   235.64482656
 H      1   2   3     1.079194609237    92.05665889   119.80474156
 Cl     1   2   3     2.379722441403   177.13754021    92.66986163

---------------------------
INTERNAL COORDINATES (A.U.)
---------------------------
 C      0   0   0     0.000000000000     0.00000000     0.00000000
 Br     1   0   0     4.473436338705     0.00000000     0.00000000
 H      1   2   0     2.039396555096    92.62409588     0.00000000
 H      1   2   3     2.051469049027    91.30376999   235.64482656
 H      1   2   3     2.039382256662    92.05665889   119.80474156
 Cl     1   2   3     4.497023688999   177.13754021    92.66986163

---------------------
BASIS SET INFORMATION
---------------------
There are 4 groups of distinct atoms

 Group   1 Type C   : 7s4p1d contracted to 3s2p1d pattern {511/31/1}
 Group   2 Type Br  : 14s10p6d contracted to 5s4p3d pattern {63311/5311/411}
 Group   3 Type H   : 4s1p contracted to 2s1p pattern {31/1}
 Group   4 Type Cl  : 10s7p1d contracted to 4s3p1d pattern {5311/511/1}

Atom   0C    basis set group =>   1
Atom   1Br   basis set group =>   2
Atom   2H    basis set group =>   3
Atom   3H    basis set group =>   3
Atom   4H    basis set group =>   3
Atom   5Cl   basis set group =>   4
---------------------------------
AUXILIARY/J BASIS SET INFORMATION
---------------------------------
There are 4 groups of distinct atoms

 Group   1 Type C   : 12s5p4d2f1g contracted to 6s4p3d1f1g pattern {711111/2111/211/2/1}
 Group   2 Type Br  : 19s5p5d3f1g contracted to 8s4p3d2f1g pattern {121111111/2111/311/21/1}
 Group   3 Type H   : 5s2p1d contracted to 3s1p1d pattern {311/2/1}
 Group   4 Type Cl  : 14s5p5d2f1g contracted to 8s4p3d1f1g pattern {71111111/2111/311/2/1}

Atom   0C    basis set group =>   1
Atom   1Br   basis set group =>   2
Atom   2H    basis set group =>   3
Atom   3H    basis set group =>   3
Atom   4H    basis set group =>   3
Atom   5Cl   basis set group =>   4


           ************************************************************
           *        Program running with 4 parallel MPI-processes     *
           *              working on a common directory               *
           ************************************************************
------------------------------------------------------------------------------
                             ORCA STARTUP CALCULATIONS
                           -- RI-GTO INTEGRALS CHOSEN --
------------------------------------------------------------------------------
------------------------------------------------------------------------------
                   ___                                                        
                  /   \      - P O W E R E D   B Y -                         
                 /     \                                                     
                 |  |  |   _    _      __       _____    __    __             
                 |  |  |  | |  | |    /  \     |  _  \  |  |  /  |          
                  \  \/   | |  | |   /    \    | | | |  |  | /  /          
                 / \  \   | |__| |  /  /\  \   | |_| |  |  |/  /          
                |  |  |   |  __  | /  /__\  \  |    /   |      \           
                |  |  |   | |  | | |   __   |  |    \   |  |\   \          
                \     /   | |  | | |  |  |  |  | |\  \  |  | \   \       
                 \___/    |_|  |_| |__|  |__|  |_| \__\ |__|  \__/        
                                                                              
                      - O R C A' S   B I G   F R I E N D -                    
                                      &                                       
                       - I N T E G R A L  F E E D E R -                       
                                                                              
 v1 FN, 2020, v2 2021, v3 2022-2024                                           
------------------------------------------------------------------------------


----------------------
SHARK INTEGRAL PACKAGE
----------------------

Number of atoms                             ...      6
Number of basis functions                   ...     79
Number of shells                            ...     35
Maximum angular momentum                    ...      2
Integral batch strategy                     ... SHARK/LIBINT Hybrid
RI-J (if used) integral strategy            ... SPLIT-RIJ (Revised 2003 algorithm where possible)
Printlevel                                  ...      1
Contraction scheme used                     ... SEGMENTED contraction
Prescreening option                         ... SCHWARTZ
   Thresh                                   ... 2.500e-11
   Tcut                                     ... 2.500e-12
   Tpresel                                  ... 2.500e-12 
Coulomb Range Separation                    ... NOT USED
Exchange Range Separation                   ... NOT USED
Multipole approximations                    ... NOT USED
Finite Nucleus Model                        ... NOT USED
CABS basis                                  ... NOT available
Auxiliary Coulomb fitting basis             ... AVAILABLE
   # of basis functions in Aux-J            ...    191
   # of shells in Aux-J                     ...     65
   Maximum angular momentum in Aux-J        ...      4
Auxiliary J/K fitting basis                 ... NOT available
Auxiliary Correlation fitting basis         ... NOT available
Auxiliary 'external' fitting basis          ... NOT available

Checking pre-screening integrals            ... done (  0.0 sec) Dimension = 35
Check shell pair data                       ... done (  0.0 sec)
Shell pair information
Shell pair cut-off parameter TPreSel        ...   2.5e-12
Total number of shell pairs                 ...       630
Shell pairs after pre-screening             ...       577
Total number of primitive shell pairs       ...      2935
Primitive shell pairs kept                  ...      2038
          la=0 lb=0:    157 shell pairs
          la=1 lb=0:    200 shell pairs
          la=1 lb=1:     73 shell pairs
          la=2 lb=0:     80 shell pairs
          la=2 lb=1:     54 shell pairs
          la=2 lb=2:     13 shell pairs

Calculating one electron integrals          ... done (  0.0 sec)
Calculating RI/J V-Matrix + Cholesky decomp.... done (  0.0 sec)
Calculating Nuclear repulsion               ... done (  0.0 sec) ENN=    177.176937747718 Eh

Diagonalization of the overlap matrix:
Smallest eigenvalue                        ... 1.377e-02
Time for diagonalization                   ...    0.001 sec
Threshold for overlap eigenvalues          ... 1.000e-07
Number of eigenvalues below threshold      ... 0
Time for construction of square roots      ...    0.000 sec
Total time needed                          ...    0.002 sec

-------------------
DFT GRID GENERATION
-------------------

General Integration Accuracy     IntAcc      ... 4.388
Radial Grid Type                 RadialGrid  ... OptM3 with GC (2021)
Angular Grid (max. ang.)         AngularGrid ... 4 (Lebedev-302)
Angular grid pruning method      GridPruning ... 4 (adaptive)
Weight generation scheme         WeightScheme... mBecke (2022)
Basis function cutoff            BFCut       ... 1.0000e-11
Integration weight cutoff        WCut        ... 1.0000e-14
Partially contracted basis set               ... off
Rotationally invariant grid construction     ... off
Angular grids for H and He will be reduced by one unit
Core-polarized basis detected: some atoms will have their core
                               angular grid increased.

Total number of grid points                  ...    34587
Total number of batches                      ...      545
Average number of points per batch           ...       63
Average number of grid points per atom       ...     5764
Initializing property integral containers    ... done (  0.0 sec)

SHARK setup successfully completed in   0.3 seconds

Maximum memory used throughout the entire STARTUP-calculation: 13.3 MB


           ************************************************************
           *        Program running with 4 parallel MPI-processes     *
           *              working on a common directory               *
           ************************************************************
-------------------------------------------------------------------------------
                                 ORCA GUESS
                   Start orbitals & Density for SCF / CASSCF
-------------------------------------------------------------------------------

------------
SCF SETTINGS
------------
Hamiltonian:
 Density Functional     Method          .... DFT(GTOs)
 Exchange Functional    Exchange        .... PBE
   PBE kappa parameter   XKappa         ....  0.804000
   PBE mue parameter    XMuePBE         ....  0.219520
 Correlation Functional Correlation     .... PBE
   PBE beta parameter  CBetaPBE         ....  0.066725
 LDA part of GGA corr.  LDAOpt          .... PW91-LDA
 Gradients option       PostSCFGGA      .... off
   NL short-range parameter             ....  6.400000
 RI-approximation to the Coulomb term is turned on
   Number of AuxJ basis functions       .... 191


General Settings:
 Integral files         IntName         .... opt_TS
 Hartree-Fock type      HFTyp           .... RHF
 Total Charge           Charge          ....   -1
 Multiplicity           Mult            ....    1
 Number of Electrons    NEL             ....   62
 Basis Dimension        Dim             ....   79
 Nuclear Repulsion      ENuc            ....    177.1769377477 Eh

Convergence Acceleration:
 AO-DIIS                CNVDIIS         .... on
   Start iteration      DIISMaxIt       ....     0
   Startup error        DIISStart       ....  0.200000
   # of expansion vecs  DIISMaxEq       ....     5
   Bias factor          DIISBfac        ....   1.050
   Max. coefficient     DIISMaxC        ....  10.000
 MO-DIIS                CNVKDIIS        .... off
 Trust-Rad. Augm. Hess. CNVTRAH         .... auto
   Auto Start mean grad. ratio tolernc. ....  1.125000
   Auto Start start iteration           ....    50
   Auto Start num. interpolation iter.  ....    10
   Max. Number of Micro iterations      ....    24
   Max. Number of Macro iterations      .... Maxiter - #DIIS iter
   Number of Davidson start vectors     ....     2
   Converg. threshold    (grad. norm)   ....   1.000e-05
   Grad. Scal. Fac. for Micro threshold ....   0.100
   Minimum threshold for Micro iter.    ....   1.000e-02
   NR start threshold (gradient norm)   ....   1.000e-04
   Initial trust radius                 ....   0.400
   Minimum AH scaling param. (alpha)    ....   1.000
   Maximum AH scaling param. (alpha)    .... 1000.000
   Quad. conv. algorithm                .... NR
   White noise on init. David. guess    .... on
   Maximum white noise                  ....   0.010
   Pseudo random numbers                .... off
   Inactive MOs                         .... canonical
   Orbital update algorithm             .... Taylor
   Preconditioner                       .... Diag
   Full preconditioner red. dimension   ....   250
 SOSCF                  CNVSOSCF        .... on
   Start iteration      SOSCFMaxIt      ....   150
   Startup grad/error   SOSCFStart      ....  0.001000
   Hessian update       SOSCFHessUp     .... L-BFGS
 Level Shifting         CNVShift        .... on
   Level shift para.    LevelShift      ....    0.2500
   Turn off err/grad.   ShiftErr        ....    0.0000
 Zerner damping         CNVZerner       .... off
 Static damping         CNVDamp         .... on
   Fraction old density DampFac         ....    0.8500
   Max. Damping (<1)    DampMax         ....    0.9800
   Min. Damping (>=0)   DampMin         ....    0.0000
   Turn off err/grad.   DampErr         ....    0.0300

SCF Procedure:
 Maximum # iterations   MaxIter         ....   125
 SCF integral mode      SCFMode         .... Direct
   Integral package                     .... SHARK and LIBINT hybrid scheme
 Reset frequency        DirectResetFreq ....    20
 Integral Threshold     Thresh          ....  2.500e-11 Eh
 Primitive CutOff       TCut            ....  2.500e-12 Eh

Convergence Tolerance:
 Convergence Check Mode ConvCheckMode   .... Total+1el-Energy
 Convergence forced     ConvForced      .... 0
 Energy Change          TolE            ....  1.000e-08 Eh
 1-El. energy change                    ....  1.000e-05 Eh
 Orbital Gradient       TolG            ....  1.000e-05
 Orbital Rotation angle TolX            ....  1.000e-05
 DIIS Error             TolErr          ....  5.000e-07

------------------------------
INITIAL GUESS: MODEL POTENTIAL
------------------------------
Loading Hartree-Fock densities                     ... done
Calculating cut-offs                               ... done
Initializing the effective Hamiltonian             ... done
Setting up the integral package (SHARK)            ... done
Starting the Coulomb interaction                   ... done (   0.0 sec)
Making the grid                                    ... done (   0.2 sec)
Mapping shells                                     ... done
Starting the XC term evaluation                    ... done (   0.0 sec)
  promolecular density results
     # of electrons  =     60.998284640
     EX              =   -122.563780878
     EC              =     -2.643189822
     EX+EC           =   -125.206970699
Transforming the Hamiltonian                       ... done (   0.0 sec)
Diagonalizing the Hamiltonian                      ... done (   0.0 sec)
Back transforming the eigenvectors                 ... done (   0.0 sec)
Now organizing SCF variables                       ... done
                      ------------------
                      INITIAL GUESS DONE (   0.3 sec)
                      ------------------
             **** ENERGY FILE WAS UPDATED (opt_TS.en.tmp) ****
Finished Guess after   0.3 sec
Maximum memory used throughout the entire GUESS-calculation: 8.2 MB


           ************************************************************
           *        Program running with 4 parallel MPI-processes     *
           *              working on a common directory               *
           ************************************************************

-------------------------------------------------------------------------------------------
                                      ORCA LEAN-SCF
                              memory conserving SCF solver
-------------------------------------------------------------------------------------------

----------------------------------------D-I-I-S--------------------------------------------
Iteration    Energy (Eh)           Delta-E    RMSDP     MaxDP     DIISErr   Damp  Time(sec)
-------------------------------------------------------------------------------------------
               ***  Starting incremental Fock matrix formation  ***
    1    -3073.1348865478921653     0.00e+00  2.14e-03  4.66e-02  1.13e-01  0.850   0.1
    2    -3073.1493044232206557    -1.44e-02  2.15e-03  4.23e-02  8.74e-02  0.850   0.1
                               ***Turning on AO-DIIS***
    3    -3073.1595138756574670    -1.02e-02  1.36e-03  2.28e-02  6.26e-02  0.850   0.1
    4    -3073.1661796330549805    -6.67e-03  9.58e-04  1.78e-02  4.87e-02  0.850   0.1
    5    -3073.1709228504946623    -4.74e-03  6.97e-04  1.36e-02  3.97e-02  0.850   0.1
    6    -3073.1745550015211847    -3.63e-03  5.27e-04  9.99e-03  3.34e-02  0.850   0.1
    7    -3073.1774725632089940    -2.92e-03  4.24e-04  7.26e-03  2.86e-02  0.850   0.1
    8    -3073.1798786276754072    -2.41e-03  2.45e-03  3.96e-02  2.44e-02  0.000   0.1
    9    -3073.1920183802221800    -1.21e-02  1.88e-04  3.60e-03  2.50e-03  0.000   0.1
                              *** Initializing SOSCF ***
---------------------------------------S-O-S-C-F--------------------------------------
Iteration    Energy (Eh)           Delta-E    RMSDP     MaxDP     MaxGrad    Time(sec)
--------------------------------------------------------------------------------------
   10    -3073.1920369770464276    -1.86e-05  9.36e-05  2.12e-03  8.39e-04     0.1
               *** Restarting incremental Fock matrix formation ***
   11    -3073.1920414510905175    -4.47e-06  6.31e-05  1.01e-03  2.00e-04     0.1
   12    -3073.1920403581930259     1.09e-06  4.15e-05  7.13e-04  4.58e-04     0.1
   13    -3073.1920418830459312    -1.52e-06  6.94e-06  1.78e-04  5.77e-05     0.1
   14    -3073.1920418886461448    -5.60e-09  3.13e-06  7.83e-05  4.24e-05     0.1
                 **** Energy Check signals convergence ****

               *****************************************************
               *                     SUCCESS                       *
               *           SCF CONVERGED AFTER  14 CYCLES          *
               *****************************************************

             **** ENERGY FILE WAS UPDATED (opt_TS.en.tmp) ****

----------------
TOTAL SCF ENERGY
----------------

Total Energy       :      -3073.19204188864614 Eh          -83625.80691 eV

Components:
Nuclear Repulsion  :        177.17693774771840 Eh            4821.22958 eV
Electronic Energy  :      -3250.36897963636420 Eh          -88447.03650 eV
One Electron Energy:      -4637.99825616100406 Eh         -126206.34876 eV
Two Electron Energy:       1387.62927652463964 Eh           37759.31226 eV

Virial components:
Potential Energy   :      -6142.14346415247655 Eh         -167136.22070 eV
Kinetic Energy     :       3068.95142226383041 Eh           83510.41379 eV
Virial Ratio       :          2.00138178128010

DFT components:
N(Alpha)           :       31.000001950527 electrons
N(Beta)            :       31.000001950527 electrons
N(Total)           :       62.000003901053 electrons
E(X)               :     -123.002168643789 Eh       
E(C)               :       -2.693648774618 Eh       
E(XC)              :     -125.695817418407 Eh       

---------------
SCF CONVERGENCE
---------------

  Last Energy change         ...    5.6002e-09  Tolerance :   1.0000e-08
  Last MAX-Density change    ...    7.8258e-05  Tolerance :   1.0000e-07
  Last RMS-Density change    ...    3.1325e-06  Tolerance :   5.0000e-09
  Last DIIS Error            ...    8.3949e-04  Tolerance :   5.0000e-07
  Last Orbital Gradient      ...    4.2425e-05  Tolerance :   1.0000e-05
  Last Orbital Rotation      ...    3.0520e-05  Tolerance :   1.0000e-05


----------------
ORBITAL ENERGIES
----------------

  NO   OCC          E(Eh)            E(eV) 
   0   2.0000    -480.697954    -13080.4563 
   1   2.0000    -100.358867     -2730.9036 
   2   2.0000     -61.539799     -1674.5831 
   3   2.0000     -55.469537     -1509.4028 
   4   2.0000     -55.467854     -1509.3570 
   5   2.0000     -55.467842     -1509.3567 
   6   2.0000      -9.775115      -265.9944 
   7   2.0000      -8.891421      -241.9479 
   8   2.0000      -8.163910      -222.1513 
   9   2.0000      -6.719358      -182.8430 
  10   2.0000      -6.713568      -182.6855 
  11   2.0000      -6.713539      -182.6847 
  12   2.0000      -6.041213      -164.3898 
  13   2.0000      -6.033829      -164.1888 
  14   2.0000      -6.033793      -164.1878 
  15   2.0000      -2.243379       -61.0454 
  16   2.0000      -2.241588       -60.9967 
  17   2.0000      -2.241561       -60.9960 
  18   2.0000      -2.236048       -60.8459 
  19   2.0000      -2.236046       -60.8459 
  20   2.0000      -0.490460       -13.3461 
  21   2.0000      -0.454941       -12.3796 
  22   2.0000      -0.408532       -11.1167 
  23   2.0000      -0.224807        -6.1173 
  24   2.0000      -0.211942        -5.7672 
  25   2.0000      -0.111065        -3.0222 
  26   2.0000      -0.037676        -1.0252 
  27   2.0000      -0.037301        -1.0150 
  28   2.0000      -0.020848        -0.5673 
  29   2.0000      -0.018135        -0.4935 
  30   2.0000      -0.017522        -0.4768 
  31   0.0000       0.126623         3.4456 
  32   0.0000       0.205860         5.6017 
  33   0.0000       0.270313         7.3556 
  34   0.0000       0.273396         7.4395 
  35   0.0000       0.499139        13.5823 
  36   0.0000       0.536946        14.6111 
  37   0.0000       0.556216        15.1354 
  38   0.0000       0.622598        16.9417 
  39   0.0000       0.670888        18.2558 
  40   0.0000       0.702555        19.1175 
  41   0.0000       0.703686        19.1483 
*Only the first 10 virtual orbitals were printed.

                    ********************************
                    * MULLIKEN POPULATION ANALYSIS *
                    ********************************

-----------------------
MULLIKEN ATOMIC CHARGES
-----------------------
   0 C :   -0.034022
   1 Br:   -0.582278
   2 H :    0.075478
   3 H :    0.070760
   4 H :    0.068997
   5 Cl:   -0.598936
Sum of atomic charges:   -1.0000000

--------------------------------
MULLIKEN REDUCED ORBITAL CHARGES
--------------------------------
  0 C s       :     3.192461  s :     3.192461
      pz      :     1.023156  p :     2.820843
      px      :     0.791953
      py      :     1.005734
      dz2     :     0.005988  d :     0.020718
      dxz     :     0.001524
      dyz     :     0.004717
      dx2y2   :     0.007533
      dxy     :     0.000956

  1 Brs       :     7.985059  s :     7.985059
      pz      :     5.984354  p :    17.582652
      px      :     5.603883
      py      :     5.994415
      dz2     :     2.002093  d :    10.014567
      dxz     :     2.003132
      dyz     :     2.000160
      dx2y2   :     2.006662
      dxy     :     2.002521

  2 H s       :     0.899962  s :     0.899962
      pz      :     0.007864  p :     0.024560
      px      :     0.005666
      py      :     0.011029

  3 H s       :     0.905047  s :     0.905047
      pz      :     0.006321  p :     0.024192
      px      :     0.005464
      py      :     0.012407

  4 H s       :     0.906255  s :     0.906255
      pz      :     0.013409  p :     0.024748
      px      :     0.006293
      py      :     0.005046

  5 Cls       :     5.984488  s :     5.984488
      pz      :     3.984143  p :    11.610254
      px      :     3.638081
      py      :     3.988031
      dz2     :     0.000707  d :     0.004193
      dxz     :     0.000774
      dyz     :     0.000000
      dx2y2   :     0.002100
      dxy     :     0.000612



                     *******************************
                     * LOEWDIN POPULATION ANALYSIS *
                     *******************************

----------------------
LOEWDIN ATOMIC CHARGES
----------------------
   0 C :   -0.061884
   1 Br:   -0.468033
   2 H :    0.015556
   3 H :    0.016994
   4 H :    0.013005
   5 Cl:   -0.515639

-------------------------------
LOEWDIN REDUCED ORBITAL CHARGES
-------------------------------
  0 C s       :     2.975998  s :     2.975998
      pz      :     1.094120  p :     3.035417
      px      :     0.854381
      py      :     1.086916
      dz2     :     0.015037  d :     0.050468
      dxz     :     0.003151
      dyz     :     0.013107
      dx2y2   :     0.017559
      dxy     :     0.001615

  1 Brs       :     7.936303  s :     7.936303
      pz      :     5.974415  p :    17.515417
      px      :     5.556266
      py      :     5.984736
      dz2     :     2.002567  d :    10.016313
      dxz     :     2.003068
      dyz     :     2.000159
      dx2y2   :     2.008343
      dxy     :     2.002177

  2 H s       :     0.909488  s :     0.909488
      pz      :     0.023140  p :     0.074955
      px      :     0.015520
      py      :     0.036295

  3 H s       :     0.909886  s :     0.909886
      pz      :     0.016690  p :     0.073120
      px      :     0.014909
      py      :     0.041521

  4 H s       :     0.911924  s :     0.911924
      pz      :     0.045480  p :     0.075070
      px      :     0.017642
      py      :     0.011948

  5 Cls       :     5.943544  s :     5.943544
      pz      :     3.978504  p :    11.568363
      px      :     3.607023
      py      :     3.982836
      dz2     :     0.000665  d :     0.003732
      dxz     :     0.000633
      dyz     :     0.000000
      dx2y2   :     0.001962
      dxy     :     0.000472



                      *****************************
                      * MAYER POPULATION ANALYSIS *
                      *****************************

  NA   - Mulliken gross atomic population
  ZA   - Total nuclear charge
  QA   - Mulliken gross atomic charge
  VA   - Mayer's total valence
  BVA  - Mayer's bonded valence
  FA   - Mayer's free valence

  ATOM       NA         ZA         QA         VA         BVA        FA
  0 C      6.0340     6.0000    -0.0340     3.8875     3.8875    -0.0000
  1 Br    35.5823    35.0000    -0.5823     0.6924     0.6924     0.0000
  2 H      0.9245     1.0000     0.0755     1.0118     1.0118     0.0000
  3 H      0.9292     1.0000     0.0708     1.0086     1.0086     0.0000
  4 H      0.9310     1.0000     0.0690     1.0164     1.0164     0.0000
  5 Cl    17.5989    17.0000    -0.5989     0.6637     0.6637     0.0000

  Mayer bond orders larger than 0.100000
B(  0-C ,  1-Br) :   0.5063 B(  0-C ,  2-H ) :   0.9805 B(  0-C ,  3-H ) :   0.9823 
B(  0-C ,  4-H ) :   0.9821 B(  0-C ,  5-Cl) :   0.4362 B(  1-Br,  5-Cl) :   0.1539 


-------
TIMINGS
-------

Total SCF time: 0 days 0 hours 0 min 1 sec 

Total time                  ....       1.307 sec
Sum of individual times     ....       1.285 sec  ( 98.3%)

SCF preparation             ....       0.107 sec  (  8.2%)
Fock matrix formation       ....       1.083 sec  ( 82.9%)
  Startup                   ....       0.006 sec  (  0.5% of F)
  Split-RI-J                ....       0.273 sec  ( 25.2% of F)
  XC integration            ....       0.783 sec  ( 72.3% of F)
    XC Preparation          ....       0.000 sec  (  0.0% of XC)
    Basis function eval.    ....       0.228 sec  ( 29.1% of XC)
    Density eval.           ....       0.099 sec  ( 12.7% of XC)
    XC-Functional eval.     ....       0.072 sec  (  9.2% of XC)
    XC-Potential eval.      ....       0.101 sec  ( 13.0% of XC)
Diagonalization             ....       0.000 sec  (  0.0%)
Density matrix formation    ....       0.010 sec  (  0.7%)
Total Energy calculation    ....       0.008 sec  (  0.6%)
Population analysis         ....       0.005 sec  (  0.4%)
Orbital Transformation      ....       0.007 sec  (  0.6%)
Orbital Orthonormalization  ....       0.000 sec  (  0.0%)
DIIS solution               ....       0.053 sec  (  4.1%)
SOSCF solution              ....       0.011 sec  (  0.8%)
Finished LeanSCF after   1.3 sec

Maximum memory used throughout the entire LEANSCF-calculation: 7.7 MB


           ************************************************************
           *        Program running with 4 parallel MPI-processes     *
           *              working on a common directory               *
           ************************************************************

------------------------------------------------------------------------------
                         ORCA PROPERTY INTEGRAL CALCULATIONS
------------------------------------------------------------------------------

GBWName                                   ... opt_TS.gbw
Number of atoms                           ...      6
Number of basis functions                 ...     79
Max core memory                           ...    750 MB

Dipole integrals                          ... YES
Quadrupole integrals                      ...  NO
Linear momentum integrals                 ...  NO
Angular momentum integrals                ...  NO
Higher moments length integrals           ...  NO
Higher moments velocity integrals         ...  NO
Kinetic energy integrals                  ...  NO
GIAO right hand sides                     ...  NO
GIAO dipole derivative integrals          ...  NO
SOC integrals                             ...  NO
EPR diamagnetic integrals (GIAO)          ...  NO
EPR gauge integrals                       ...  NO
Field gradient integrals                  ...  NO (   0 nuclei)
Spin-dipole/Fermi contact integrals       ...  NO (   0 nuclei)
Contact density integrals                 ...  NO (   0 nuclei)
Nucleus-orbit integrals                   ...  NO (   0 nuclei)
Geometric perturbations                   ...  NO (   6 nuclei)

Choice of electric origin   ... Center of mass
Position of electric origin ... ( -6.7961,  2.4195, -0.2673) 
Choice of magnetic origin   ... GIAO
Position of magnetic origin ... (  0.0000,  0.0000,  0.0000) 

Calculating integrals                     ... Electric Dipole (Length)     done (  0.0 sec)

Property integrals calculated in   0.0 sec

Maximum memory used throughout the entire PROPINT-calculation: 6.6 MB


-------------------------------------------------------------------------------
                          DFT DISPERSION CORRECTION                            
                                                                               
                              DFTD3 V3.1  Rev 1                                
                          USING Becke-Johnson damping                          
-------------------------------------------------------------------------------
The PBE functional is recognized
Active option DFTDOPT                   ...         4   

molecular C6(AA) [au] = 1029.351977 


            DFT-D V3
 parameters
 s6 scaling factor         :     1.0000 
 a1 scaling factor         :     0.4289 
 s8 scaling factor         :     0.7875 
 a2 scaling factor         :     4.4407 
 ad hoc parameters k1-k3   :    16.0000     1.3333    -4.0000 

 Edisp/kcal,au: -2.497306026556  -0.003979710050 
 E6   /kcal   :  -1.669383489 
 E8   /kcal   :  -0.827922537 
 % E8         :  33.152626400 

-------------------------   ----------------
Dispersion correction           -0.003979710
-------------------------   ----------------


-------------------------   --------------------
FINAL SINGLE POINT ENERGY     -3073.196021598696
-------------------------   --------------------



           ************************************************************
           *        Program running with 4 parallel MPI-processes     *
           *              working on a common directory               *
           ************************************************************
------------------------------------------------------------------------------
                         ORCA SCF GRADIENT CALCULATION
------------------------------------------------------------------------------

Nuc. rep. gradient        (SHARK) ... done (  0.0 sec)
HCore & Overlap gradient  (SHARK) ... done (  0.0 sec)
Split-RIJ-J gradient      (SHARK) ... done (  0.2 sec)
XC gradient                       ... done (  0.4 sec)
Dispersion correction             ... done (  0.0 sec)

-------------------
DISPERSION GRADIENT
-------------------

   1   C   :    0.000005907   -0.000001051    0.000000820
   2   Br  :    0.000334384   -0.000004121   -0.000047875
   3   H   :    0.000000469    0.000043301    0.000031997
   4   H   :    0.000003543   -0.000051734    0.000021677
   5   H   :   -0.000013190    0.000002522   -0.000047736
   6   Cl  :   -0.000331113    0.000011084    0.000041118

Difference to translation invariance:
           :    0.0000000000   -0.0000000000    0.0000000000

Difference to rotation invariance:
           :    0.0000000000    0.0000000000   -0.0000000000

Norm of the Dispersion gradient    ...    0.0004838643
RMS gradient                       ...    0.0001140479
MAX gradient                       ...    0.0003343837

------------------
CARTESIAN GRADIENT
------------------

   1   C   :    0.002865627    0.005622771    0.006170660
   2   Br  :   -0.009238043   -0.000024184    0.001052569
   3   H   :    0.000463254   -0.003530382   -0.006292494
   4   H   :    0.002106021    0.000567124   -0.006988168
   5   H   :    0.001608636   -0.003363242    0.007324965
   6   Cl  :    0.002194504    0.000727913   -0.001267532

Difference to translation invariance:
           :    0.0000000002   -0.0000000003    0.0000000000

Difference to rotation invariance:
           :    0.0000031926    0.0000187692    0.0000142111

Norm of the Cartesian gradient     ...    0.0185667994
RMS gradient                       ...    0.0043762366
MAX gradient                       ...    0.0092380434

-------
TIMINGS
-------

Total SCF gradient time     ....        0.643 sec

Densities                   ....       0.000 sec  (  0.0%)
One electron gradient       ....       0.017 sec  (  2.7%)
RI-J Coulomb gradient       ....       0.191 sec  ( 29.7%)
XC gradient                 ....       0.396 sec  ( 61.6%)

Maximum memory used throughout the entire SCFGRAD-calculation: 26.3 MB


           ************************************************************
           *        Program running with 4 parallel MPI-processes     *
           *              working on a common directory               *
           ************************************************************

------------------------------------------------------------------------------
                         ORCA PROPERTY INTEGRAL CALCULATIONS
------------------------------------------------------------------------------

GBWName                                   ... opt_TS.gbw
Number of atoms                           ...      6
Number of basis functions                 ...     79
Max core memory                           ...    750 MB

Dipole integrals                          ...  NO
Quadrupole integrals                      ...  NO
Linear momentum integrals                 ...  NO
Angular momentum integrals                ...  NO
Higher moments length integrals           ...  NO
Higher moments velocity integrals         ...  NO
Kinetic energy integrals                  ...  NO
GIAO right hand sides                     ...  NO
GIAO dipole derivative integrals          ...  NO
SOC integrals                             ...  NO
EPR diamagnetic integrals (GIAO)          ...  NO
EPR gauge integrals                       ...  NO
Field gradient integrals                  ...  NO (   0 nuclei)
Spin-dipole/Fermi contact integrals       ...  NO (   0 nuclei)
Contact density integrals                 ...  NO (   0 nuclei)
Nucleus-orbit integrals                   ...  NO (   0 nuclei)
Geometric perturbations                   ... YES (   6 nuclei)

Choice of electric origin   ... Center of mass
Position of electric origin ... ( -6.7961,  2.4195, -0.2673) 
Choice of magnetic origin   ... GIAO
Position of magnetic origin ... (  0.0000,  0.0000,  0.0000) 

Calculating integrals                     ... Geometrical perturbation right hand sides

-----------------------
GEOMETRIC PERTURBATIONS (6 nuclei)
-----------------------

MaxCore                            ...    750 MB
Number of batches                  ...      1

BATCH   0: Atoms    0 -    5 ( 18 perturbations)
   => H(core) and overlap derivative integrals     ... done (     0.0 sec)
   => Making and storing internal U-coefficients   ... done (     0.0 sec)
   => RI-J derivative integrals                    ... done (     0.3 sec)
   => RI-J response operators                      ... done (     0.0 sec)
   => XC derivative integrals                      ... done (     1.3 sec)
   => XC response operators                        ... done (     0.3 sec)
   => Completing and storing right hand sides      ... done (     0.0 sec)
   => Total time for right hand sides =   2.0 sec

  geometrical perturbations done (  2.0 sec)

Property integrals calculated in   2.0 sec

Maximum memory used throughout the entire PROPINT-calculation: 12.5 MB


           ************************************************************
           *        Program running with 4 parallel MPI-processes     *
           *              working on a common directory               *
           ************************************************************
------------------------------------------------------------------------------
                            ORCA SCF RESPONSE CALCULATION
------------------------------------------------------------------------------

GBWName                                 ... opt_TS.gbw
Number of atoms                         ...      6
Number of basis functions               ...     79
Max core memory                         ...    750 MB

Electric field perturbation             ...  NO
Quadrupolar field perturbation          ...  NO
Magnetic field perturbation (no GIAO)   ...  NO
Magnetic field perturbation (with GIAO) ...  NO
Linear momentum (velocity) perturbation ...  NO
Spin-orbit coupling perturbation        ...  NO
Choice of electric origin               ... Center of mass
Position of electric origin             ...    -6.796137     2.419476    -0.267304
Choice of magnetic origin               ... GIAO
Position of magnetic origin             ...     0.000000     0.000000     0.000000
Nuclear geometric perturbations         ... YES (  18 perturbations)
Nucleus-orbit perturbations             ...  NO (   0 perturbations)
Spin-dipole/Fermi contact perturbations ...  NO (   0 perturbations)

Total number of real perturbations      ...     18
Total number of imaginary perturbations ...      0
Total number of triplet perturbations   ...      0
Total number of SOC perturbations       ...      0

Using XC Grid                  ... (opt_TS.grid_cpscf.tmp) 
Recalculating density on grid  ... (opt_TS.grho_cpscf0.tmp) done
Calculating the xc-kernel      ... (opt_TS.fxc_cpscf0.tmp) done

                                **********************
                                * REAL PERTURBATIONS *
                                **********************



-------------------
SHARK CP-SCF DRIVER
-------------------

Dimension of the orbital basis          ...     79
Dimension of the CPSCF-problem          ...   1488
Number of operators                     ...      1
Max. number of iterations               ...    128
Max. DIIS space dimension               ...     20
Convergence Tolerance                   ... 1.0e-04
Number of perturbations                 ...     18
Perturbation type                       ... REAL

--------------------
DIIS EQUATION SOLVER
--------------------

  ITERATION   0:   ||err||_max =   1.2579e-01 (   0.2 sec   0/ 18 done)
  ITERATION   1:   ||err||_max =   1.0180e-01 (   0.2 sec   0/ 18 done)
  ITERATION   2:   ||err||_max =   1.8834e-02 (   0.1 sec   0/ 18 done)
  ITERATION   3:   ||err||_max =   7.6669e-03 (   0.2 sec   0/ 18 done)
  ITERATION   4:   ||err||_max =   1.9752e-03 (   0.2 sec   1/ 18 done)
  ITERATION   5:   ||err||_max =   6.4680e-04 (   0.1 sec   4/ 18 done)
  ITERATION   6:   ||err||_max =   2.4270e-04 (   0.1 sec  16/ 18 done)
  ITERATION   7:   ||err||_max =   6.5324e-05 (   0.0 sec  18/ 18 done)

CP-SCF equations solved in   1.2 sec
Response densities calculated in   0.0 sec

Maximum memory used throughout the entire SCFRESP-calculation: 7.7 MB


           ************************************************************
           *        Program running with 4 parallel MPI-processes     *
           *              working on a common directory               *
           ************************************************************

------------------------------------------------------------------------------
                              ORCA PROPERTY CALCULATIONS
------------------------------------------------------------------------------

GBWName                                 ... opt_TS.gbw
Number of atoms                         ...      6
Number of basis functions               ...     79
Max core memory                         ...    750 MB

Electric properties:
Dipole moment                           ...  NO
Quadrupole moment                       ...  NO
Static polarizability (Dipole/Dipole)   ...  NO
Static polarizability (Dipole/Quad.)    ...  NO
Static polarizability (Quad./Quad.)     ...  NO
Static polarizability (Velocity)        ...  NO

Atomic electric properties:
Dipole moment                           ...  NO
Quadrupole moment                       ...  NO
Static polarizability                   ...  NO

Choice of electric origin               ... Center of mass
Position of electric origin             ...    -6.796137     2.419476    -0.267304

General magnetic properties:
Magnetizability                         ...  NO

EPR properties:
g-Tensor (aka g-matrix)                 ...  NO
Zero-Field splitting spin-orbit         ...  NO
Zero-field splitting spin-spin          ...  NO
Hyperfine couplings                     ...  NO (   0 nuclei)
Quadrupole couplings                    ...  NO (   0 nuclei)
Contact density                         ...  NO (   0 nuclei)

NMR properties:
Chemical shifts                         ...  NO (   0 nuclei)
Spin-rotation constants                 ...  NO (   0 nuclei)
Spin-spin couplings                     ...  NO (   0 nuclei,    0 pairs)

Choice of magnetic origin               ... GIAO
Position of magnetic origin             ...     0.000000     0.000000     0.000000

Properties with geometric perturbations:
SCF Hessian                             ... YES
IR spectrum                             ... YES
VCD spectrum                            ...  NO
X-ray spectroscopy properties:
SCF XES/XAS/RIXS spectra                ...  NO


-----------
SCF HESSIAN
-----------

Occupied/Occupied contributions to the Hessian:
   => Occupied/Occupied contributions              ... done (  0.0 sec)
Perturbed density contributions to the Hessian:
   => Perturbed density contributions              ... done (  0.0 sec)
Explicit contributions to the Hessian:
   => Nuclear repulsion Hessian                    ... done (  0.0 sec)
   => HCore and overlap Hessian                    ... done (  0.1 sec)
   => RI-J Hessian                                 ... done (  0.4 sec)
   => XC-Hessian                                   ... done (  1.9 sec)
   => Van der Waals-Hessian                        ... done (  0.6 sec)
   => Explicit contributions done
Dipole derivatives                                 ... done (  0.0 sec)
Mass weighting the Hessian           ... done
Calculating normal modes             ... done
Scaling frequencies                  ... done

-----------------------
VIBRATIONAL FREQUENCIES
-----------------------

Scaling factor for frequencies =  1.000000000  (already applied!)

     0:       0.00 cm**-1
     1:       0.00 cm**-1
     2:       0.00 cm**-1
     3:       0.00 cm**-1
     4:       0.00 cm**-1
     5:       0.00 cm**-1
     6:    -340.62 cm**-1  ***imaginary mode***
     7:     164.76 cm**-1
     8:     168.45 cm**-1
     9:     187.23 cm**-1
    10:     786.22 cm**-1
    11:     805.71 cm**-1
    12:     847.39 cm**-1
    13:    1252.45 cm**-1
    14:    1310.79 cm**-1
    15:    3182.14 cm**-1
    16:    3386.21 cm**-1
    17:    3432.56 cm**-1


------------
NORMAL MODES
------------

These modes are the Cartesian displacements weighted by the diagonal matrix
M(i,i)=1/sqrt(m[i]) where m[i] is the mass of the displaced atom
Thus, these vectors are normalized but *not* orthogonal

                  0          1          2          3          4          5    
      0       0.000000   0.000000   0.000000   0.000000   0.000000   0.000000
      1       0.000000   0.000000   0.000000   0.000000   0.000000   0.000000
      2       0.000000   0.000000   0.000000   0.000000   0.000000   0.000000
      3       0.000000   0.000000   0.000000   0.000000   0.000000   0.000000
      4       0.000000   0.000000   0.000000   0.000000   0.000000   0.000000
      5       0.000000   0.000000   0.000000   0.000000   0.000000   0.000000
      6       0.000000   0.000000   0.000000   0.000000   0.000000   0.000000
      7       0.000000   0.000000   0.000000   0.000000   0.000000   0.000000
      8       0.000000   0.000000   0.000000   0.000000   0.000000   0.000000
      9       0.000000   0.000000   0.000000   0.000000   0.000000   0.000000
     10       0.000000   0.000000   0.000000   0.000000   0.000000   0.000000
     11       0.000000   0.000000   0.000000   0.000000   0.000000   0.000000
     12       0.000000   0.000000   0.000000   0.000000   0.000000   0.000000
     13       0.000000   0.000000   0.000000   0.000000   0.000000   0.000000
     14       0.000000   0.000000   0.000000   0.000000   0.000000   0.000000
     15       0.000000   0.000000   0.000000   0.000000   0.000000   0.000000
     16       0.000000   0.000000   0.000000   0.000000   0.000000   0.000000
     17       0.000000   0.000000   0.000000   0.000000   0.000000   0.000000
                  6          7          8          9         10         11    
      0      -0.897916   0.031444  -0.048343  -0.200628   0.002765   0.014813
      1       0.034414   0.468661   0.088160  -0.061517  -0.002719  -0.015747
      2       0.107617   0.081761  -0.475408   0.047260  -0.015654   0.002681
      3       0.064500   0.002548   0.007677   0.399890  -0.003031  -0.003882
      4      -0.002057  -0.044220  -0.008339  -0.001855   0.000730   0.004130
      5      -0.008512  -0.008414   0.044325  -0.056447   0.004514  -0.000373
      6       0.286439   0.064426  -0.093016  -0.181394   0.699018   0.662624
      7       0.065142   0.414990   0.121056  -0.051686  -0.006683   0.021008
      8      -0.047603   0.173261  -0.526875   0.041606  -0.069954  -0.108467
      9       0.099639  -0.038545  -0.089522  -0.112145   0.348774  -0.599230
     10       0.011226   0.437403   0.111132  -0.064905   0.002823   0.002430
     11      -0.032647  -0.010955  -0.429656   0.051935  -0.027918   0.089070
     12       0.211838   0.016684  -0.032928  -0.210081  -0.610350   0.418728
     13       0.042390   0.592771   0.034955  -0.070233   0.012233   0.025514
     14      -0.100104   0.095240  -0.492697   0.040731   0.104726  -0.071282
     15       0.141838  -0.017606   0.005201  -0.818938  -0.006543  -0.009977
     16      -0.010401  -0.100208  -0.018670   0.030332  -0.000962  -0.005364
     17      -0.012148  -0.016058   0.102371   0.107385  -0.005065   0.002511
                 12         13         14         15         16         17    
      0      -0.010923   0.012413  -0.005839   0.003451  -0.011173  -0.011252
      1      -0.003250  -0.038783  -0.082433   0.011904   0.074539  -0.070864
      2      -0.002769   0.085538  -0.037297  -0.006998  -0.065914  -0.074599
      3       0.011569   0.000036  -0.000033  -0.000124   0.000038   0.000020
      4       0.001529   0.000015   0.000065  -0.000008  -0.000079   0.000081
      5      -0.000946  -0.000019   0.000012   0.000020   0.000090   0.000094
      6      -0.212485  -0.085841  -0.064007   0.028349  -0.013979   0.038121
      7      -0.009641   0.459478   0.018261   0.447950  -0.206720   0.663344
      8       0.027434  -0.640761  -0.166001   0.303774  -0.149785   0.445649
      9      -0.711679  -0.035697   0.109825   0.021135   0.017291  -0.008109
     10       0.018218  -0.258003   0.182145  -0.629071  -0.627234   0.218973
     11       0.105745  -0.465697   0.572700   0.260273   0.248951  -0.099065
     12      -0.648752  -0.030433   0.018693  -0.090181   0.128950   0.101672
     13       0.011402   0.255671   0.765071   0.041978  -0.041116  -0.051117
     14       0.119144   0.104658   0.029767  -0.481916   0.671263   0.527661
     15       0.022348   0.000034   0.000218   0.000266  -0.000061   0.000022
     16      -0.002912   0.000108   0.000330  -0.000058  -0.000195   0.000193
     17      -0.004103  -0.000454   0.000199  -0.000009   0.000222   0.000205


-----------
IR SPECTRUM
-----------

 Mode   freq       eps      Int      T**2         TX        TY        TZ
       cm**-1   L/(mol*cm) km/mol    a.u.
----------------------------------------------------------------------------
  7:    164.76   0.001264    6.39  0.002394  ( 0.014936  0.046093  0.006817)
  8:    168.45   0.001268    6.41  0.002350  ( 0.008477  0.007644 -0.047113)
  9:    187.23   0.000231    1.17  0.000386  ( 0.019403 -0.002313 -0.001988)
 10:    786.22   0.000239    1.21  0.000095  (-0.006727  0.001688  0.006832)
 11:    805.71   0.000052    0.26  0.000020  (-0.001031  0.004188 -0.001180)
 12:    847.39   0.002130   10.77  0.000785  ( 0.027957 -0.000331 -0.001673)
 13:   1252.45   0.001099    5.55  0.000274  (-0.001802  0.005861 -0.015369)
 14:   1310.79   0.000621    3.14  0.000148  ( 0.001015  0.010583  0.005910)
 15:   3182.14   0.000005    0.03  0.000001  ( 0.000069  0.000312  0.000645)
 16:   3386.21   0.000223    1.13  0.000021  ( 0.000819 -0.003896  0.002162)
 17:   3432.56   0.000539    2.72  0.000049  ( 0.000772  0.005329  0.004472)

* The epsilon (eps) is given for a Dirac delta lineshape.
** The dipole moment derivative (T) already includes vibrational overlap.

The first frequency considered to be a vibration is 7
The total number of vibrations considered is 11


--------------------------
THERMOCHEMISTRY AT 298.15K
--------------------------

Temperature         ...   298.15 K
Pressure            ...     1.00 atm
Total Mass          ...   130.39 AMU
Quasi RRHO          ...     True
Cut-Off Frequency   ...     1.00 cm^-1

Throughout the following assumptions are being made:
  (1) The electronic state is orbitally nondegenerate
  (2) There are no thermally accessible electronically excited states
  (3) Hindered rotations indicated by low frequency modes are not
      treated as such but are treated as vibrations and this may
      cause some error
  (4) All equations used are the standard statistical mechanics
      equations for an ideal gas
  (5) All vibrations are strictly harmonic

freq.     164.76  E(vib)   ...       0.39 
freq.     168.45  E(vib)   ...       0.38 
freq.     187.23  E(vib)   ...       0.36 
freq.     786.22  E(vib)   ...       0.05 
freq.     805.71  E(vib)   ...       0.05 
freq.     847.39  E(vib)   ...       0.04 
freq.    1252.45  E(vib)   ...       0.01 
freq.    1310.79  E(vib)   ...       0.01 
freq.    3182.14  E(vib)   ...       0.00 
freq.    3386.21  E(vib)   ...       0.00 
freq.    3432.56  E(vib)   ...       0.00 

------------
INNER ENERGY
------------

The inner energy is: U= E(el) + E(ZPE) + E(vib) + E(rot) + E(trans)
    E(el)   - is the total energy from the electronic structure calculation
              = E(kin-el) + E(nuc-el) + E(el-el) + E(nuc-nuc)
    E(ZPE)  - the the zero temperature vibrational energy from the frequency calculation
    E(vib)  - the the finite temperature correction to E(ZPE) due to population
              of excited vibrational states
    E(rot)  - is the rotational thermal energy
    E(trans)- is the translational thermal energy

Summary of contributions to the inner energy U:
Electronic energy                ...  -3073.19602160 Eh
Zero point energy                ...      0.03536612 Eh      22.19 kcal/mol
Thermal vibrational correction   ...      0.00206033 Eh       1.29 kcal/mol
Thermal rotational correction    ...      0.00141627 Eh       0.89 kcal/mol
Thermal translational correction ...      0.00141627 Eh       0.89 kcal/mol
-----------------------------------------------------------------------
Total thermal energy                  -3073.15576261 Eh


Summary of corrections to the electronic energy:
(perhaps to be used in another calculation)
Total thermal correction                  0.00489287 Eh       3.07 kcal/mol
Non-thermal (ZPE) correction              0.03536612 Eh      22.19 kcal/mol
-----------------------------------------------------------------------
Total correction                          0.04025899 Eh      25.26 kcal/mol


--------
ENTHALPY
--------

The enthalpy is H = U + kB*T
                kB is Boltzmann's constant
Total thermal energy              ...  -3073.15576261 Eh 
Thermal Enthalpy correction       ...      0.00094421 Eh       0.59 kcal/mol
-----------------------------------------------------------------------
Total Enthalpy                    ...  -3073.15481840 Eh


Note: Only C1 symmetry has been detected, increase convergence thresholds 
      if your molecule has a higher symmetry. Symmetry factor of 1.0 is   
      used for the rotational entropy correction. 
 

Note: Rotational entropy computed according to Herzberg 
Infrared and Raman Spectra, Chapter V,1, Van Nostrand Reinhold, 1945 
Point Group:  C1, Symmetry Number:   1  
Rotational constants in cm-1:     4.720287     0.029790     0.029783 

Vibrational entropy computed according to the QRRHO of S. Grimme
Chem.Eur.J. 2012 18 9955 using a reference frequency of 100.0 cm-1


-------
ENTROPY
-------

The entropy contributions are T*S = T*(S(el)+S(vib)+S(rot)+S(trans))
     S(el)   - electronic entropy
     S(vib)  - vibrational entropy
     S(rot)  - rotational entropy
     S(trans)- translational entropy
The entropies will be listed as multiplied by the temperature to get
units of energy

Electronic entropy                ...      0.00000000 Eh      0.00 kcal/mol
Vibrational entropy               ...      0.00371786 Eh      2.33 kcal/mol
Rotational entropy                ...      0.01209576 Eh      7.59 kcal/mol
Translational entropy             ...      0.01924704 Eh     12.08 kcal/mol
-----------------------------------------------------------------------
Final entropy term                ...      0.03506066 Eh     22.00 kcal/mol

In case the symmetry of your molecule has not been determined correctly
or in case you have a reason to use a different symmetry number we print 
out the resulting rotational entropy values for sn=1,12:

 non-linear molecules -----------------------------------
|  sn= 1 | S(rot)=       0.01209576 Eh      7.59 kcal/mol|
|  sn= 2 | S(rot)=       0.01144130 Eh      7.18 kcal/mol|
|  sn= 3 | S(rot)=       0.01105847 Eh      6.94 kcal/mol|
|  sn= 4 | S(rot)=       0.01078685 Eh      6.77 kcal/mol|
|  sn= 5 | S(rot)=       0.01057616 Eh      6.64 kcal/mol|
|  sn= 6 | S(rot)=       0.01040402 Eh      6.53 kcal/mol|
|  sn= 7 | S(rot)=       0.01025847 Eh      6.44 kcal/mol|
|  sn= 8 | S(rot)=       0.01013239 Eh      6.36 kcal/mol|
|  sn= 9 | S(rot)=       0.01002118 Eh      6.29 kcal/mol|
|  sn=10 | S(rot)=       0.00992170 Eh      6.23 kcal/mol|
|  sn=11 | S(rot)=       0.00983171 Eh      6.17 kcal/mol|
|  sn=12 | S(rot)=       0.00974956 Eh      6.12 kcal/mol|
 linear molecules ---------------------------------------
|  Dinfh | S(rot)=       0.00864350 Eh      5.42 kcal/mol|
|  Cinfv | S(rot)=       0.00929796 Eh      5.83 kcal/mol|
 --------------------------------------------------------


-------------------
GIBBS FREE ENERGY
-------------------

The Gibbs free energy is G = H - T*S

Total enthalpy                    ...  -3073.15481840 Eh 
Total entropy correction          ...     -0.03506066 Eh    -22.00 kcal/mol
-----------------------------------------------------------------------
Final Gibbs free energy         ...  -3073.18987906 Eh

For completeness - the Gibbs free energy minus the electronic energy
G-E(el)                           ...      0.00614254 Eh      3.85 kcal/mol


Maximum memory used throughout the entire PROP-calculation: 30.5 MB
Actual Hessian File stored as opt_TS.001.hess
------------------------------------------------------------------------------
                         ORCA GEOMETRY RELAXATION STEP
------------------------------------------------------------------------------

Reading the OPT-File                    .... done
Getting information on internals        .... done
Copying old internal coords+grads       .... done
Making the new internal coordinates     .... (2022 redundants) done
Validating the new internal coordinates .... (2022 redundants) done
Calculating the B-matrix                .... done
Calculating the G,G- and P matrices     .... done
Transforming gradient to internals      .... done
Projecting the internal gradient        .... done
Number of atoms                         ....   6
Number of internal coordinates          ....  17
Current Energy                          .... -3073.196021599 Eh
Current gradient norm                   ....     0.018566799 Eh/bohr
Maximum allowed component of the step   ....  0.300
Current trust radius                    ....  0.300
Evaluating the initial hessian          ....  (read) 
(Reading Exact Hessian)...  
InHessName: opt_TS.hess	The file <opt_TS.hess> is opened as a .hess file
done
done
Projecting the Hessian                  .... done
Diagonalizing the Hessian               .... done
Dimension of the hessian                ....  17
Lowest eigenvalues of the Hessian:
 -0.013543424  0.012328012  0.012478021  0.014843877  0.074129347
Hessian has   1 negative eigenvalues
Taking P-RFO step
Searching for lambda that maximizes along the lowest mode
TS mode is mode number   0 with eigenvalue  -0.01354342 and components:
   1.   -0.54053725
   2.    0.00163021
   3.   -0.00012405
   4.    0.00225836
   5.    0.01006440
   6.    0.01232290
   7.    0.56236179
   8.    0.08814501
   9.    0.24747280
  10.   -0.03052118
  11.    0.24528265
  12.   -0.03222603
  13.   -0.02882092
  14.   -0.26437299
  15.   -0.22874308
  16.   -0.26171972
  17.    0.26194938

Lambda that maximizes along the TS mode:       0.00018101
Searching for lambda that minimizes along all other modes
In cycle   1: lambdaN =  -0.00270481   step =   0.00270481
In cycle   2: lambdaN =  -0.00271784   step =   0.00001302
In cycle   3: lambdaN =  -0.00271784   step =   0.00000000
Lambda that minimizes along all other modes:  -0.00271784
The final length of the internal step   ....       0.2387
Converting the step to Cartesian space:
 Initial RMS(Int)=    0.0578939255
Transforming coordinates:
 Iter   0:  RMS(Cart)=    0.0491068541 RMS(Int)=    0.0583380622
 Iter   5:  RMS(Cart)=    0.0000000212 RMS(Int)=    0.0000000250
done
Storing new coordinates                 .... done

                                .--------------------.
          ----------------------|Geometry convergence|-------------------------
          Item                value                   Tolerance       Converged
          ---------------------------------------------------------------------
          RMS gradient        0.0041484897            0.0001000000      NO
          MAX gradient        0.0092888570            0.0003000000      NO
          RMS step            0.0578939255            0.0020000000      NO
          MAX step            0.1208425676            0.0040000000      NO
          ........................................................
          Max(Bonds)      0.0639      Max(Angles)    4.93
          Max(Dihed)        0.00      Max(Improp)    0.00
          ---------------------------------------------------------------------

The optimization has not yet converged - more geometry cycles are needed


    ---------------------------------------------------------------------------
                         Redundant Internal Coordinates
                            (Angstroem and degrees)

        Definition                    Value    dE/dq     Step     New-Value  comp.(TS mode)
    ----------------------------------------------------------------------------
     1. B(Br  1,C   0)                2.3672 -0.009289  0.0210    2.3883          0.54
     2. B(H   2,C   0)                1.0792 -0.006258  0.0101    1.0893   
     3. B(H   3,C   0)                1.0856 -0.003600  0.0037    1.0893   
     4. B(H   4,C   0)                1.0792 -0.007103  0.0102    1.0893   
     5. B(Cl  5,H   4)                2.5329 -0.001761  0.0504    2.5833   
     6. B(Cl  5,H   2)                2.5700 -0.000400  0.0185    2.5885   
     7. B(Cl  5,C   0)                2.3797 -0.001510  0.0639    2.4437          0.56
     8. B(Cl  5,H   3)                2.6325  0.001282 -0.0246    2.6079   
     9. A(Br  1,C   0,H   3)           91.30 -0.001548    3.09     94.39   
    10. A(H   2,C   0,H   3)          124.23  0.006447   -4.72    119.51   
    11. A(Br  1,C   0,H   4)           92.06 -0.002911    2.83     94.89   
    12. A(H   2,C   0,H   4)          119.64 -0.000005   -0.04    119.60   
    13. A(H   3,C   0,H   4)          115.76 -0.005799    3.76    119.52   
    14. A(H   2,C   0,Cl  5)           87.51  0.001774   -2.49     85.02          0.26
    15. A(H   3,C   0,Cl  5)           90.98  0.002264   -4.93     86.05   
    16. A(H   4,C   0,Cl  5)           85.40  0.001098   -0.62     84.77          0.26
    17. A(Br  1,C   0,H   2)           92.62 -0.000989    2.37     94.99          0.26
    ----------------------------------------------------------------------------

Geometry step timings:
Preparation and reading OPT file:      0.000 s ( 2.682 %)
Internal coordinates            :      0.000 s ( 0.566 %)
B/P matrices and projection     :      0.000 s ( 3.029 %)
Hessian update/contruction      :      0.005 s (84.018 %)
Making the step                 :      0.000 s ( 3.138 %)
Converting the step to Cartesian:      0.000 s ( 0.712 %)
Storing new data                :      0.000 s ( 0.529 %)
Checking convergence            :      0.000 s ( 0.018 %)
Final printing                  :      0.000 s ( 5.236 %)
Total time                      :      0.005 s

Time for energy+gradient        :      4.828 s
Time for complete geometry iter :     12.035 s

         *************************************************************
         *                GEOMETRY OPTIMIZATION CYCLE   2            *
         *************************************************************
---------------------------------
[...]
Position of magnetic origin             ...     0.000000     0.000000     0.000000

Properties with geometric perturbations:
SCF Hessian                             ... YES
IR spectrum                             ... YES
VCD spectrum                            ...  NO
X-ray spectroscopy properties:
SCF XES/XAS/RIXS spectra                ...  NO


-------------
DIPOLE MOMENT
-------------

Method             : SCF
Type of density    : Electron Density
Multiplicity       :   1
Irrep              :   0
Energy             : -3073.1934242692818771 Eh
Relativity type    : 
Basis              : AO
                                X                 Y                 Z
Electronic contribution:     14.637319003      -0.240695791      -2.030454716
Nuclear contribution   :    -12.809154192       0.210270876       1.777112449
                        -----------------------------------------
Total Dipole Moment    :      1.828164811      -0.030424915      -0.253342267
                        -----------------------------------------
Magnitude (a.u.)       :      1.845885846
Magnitude (Debye)      :      4.691868951



--------------------
Rotational spectrum 
--------------------
 
Rotational constants in cm-1:             4.728533             0.028583             0.028583 
Rotational constants in MHz :        141757.844460           856.909285           856.909135 

Dipole components along the rotational axes: 
x,y,z [a.u.] :    -1.845886     0.000186     0.000183 
x,y,z [Debye]:    -4.691869     0.000473     0.000465 

 

Dipole moment calculation done in   0.0 sec 

-----------
SCF HESSIAN
-----------

Occupied/Occupied contributions to the Hessian:
   => Occupied/Occupied contributions              ... done (  0.0 sec)
Perturbed density contributions to the Hessian:
   => Perturbed density contributions              ... done (  0.0 sec)
Explicit contributions to the Hessian:
   => Nuclear repulsion Hessian                    ... done (  0.0 sec)
   => HCore and overlap Hessian                    ... done (  0.1 sec)
   => RI-J Hessian                                 ... done (  0.4 sec)
   => XC-Hessian                                   ... done (  1.9 sec)
   => Van der Waals-Hessian                        ... done (  0.7 sec)
   => Explicit contributions done
Dipole derivatives                                 ... done (  0.0 sec)
Mass weighting the Hessian           ... done
Calculating normal modes             ... done
Scaling frequencies                  ... done

-----------------------
VIBRATIONAL FREQUENCIES
-----------------------

Scaling factor for frequencies =  1.000000000  (already applied!)

     0:       0.00 cm**-1
     1:       0.00 cm**-1
     2:       0.00 cm**-1
     3:       0.00 cm**-1
     4:       0.00 cm**-1
     5:       0.00 cm**-1
     6:    -273.79 cm**-1  ***imaginary mode***
     7:     167.75 cm**-1
     8:     167.84 cm**-1
     9:     170.81 cm**-1
    10:     786.19 cm**-1
    11:     786.47 cm**-1
    12:     853.24 cm**-1
    13:    1306.59 cm**-1
    14:    1306.96 cm**-1
    15:    3112.13 cm**-1
    16:    3323.30 cm**-1
    17:    3323.36 cm**-1


------------
NORMAL MODES
------------

These modes are the Cartesian displacements weighted by the diagonal matrix
M(i,i)=1/sqrt(m[i]) where m[i] is the mass of the displaced atom
Thus, these vectors are normalized but *not* orthogonal

                  0          1          2          3          4          5    
      0       0.000000   0.000000   0.000000   0.000000   0.000000   0.000000
      1       0.000000   0.000000   0.000000   0.000000   0.000000   0.000000
      2       0.000000   0.000000   0.000000   0.000000   0.000000   0.000000
      3       0.000000   0.000000   0.000000   0.000000   0.000000   0.000000
      4       0.000000   0.000000   0.000000   0.000000   0.000000   0.000000
      5       0.000000   0.000000   0.000000   0.000000   0.000000   0.000000
      6       0.000000   0.000000   0.000000   0.000000   0.000000   0.000000
      7       0.000000   0.000000   0.000000   0.000000   0.000000   0.000000
      8       0.000000   0.000000   0.000000   0.000000   0.000000   0.000000
      9       0.000000   0.000000   0.000000   0.000000   0.000000   0.000000
     10       0.000000   0.000000   0.000000   0.000000   0.000000   0.000000
     11       0.000000   0.000000   0.000000   0.000000   0.000000   0.000000
     12       0.000000   0.000000   0.000000   0.000000   0.000000   0.000000
     13       0.000000   0.000000   0.000000   0.000000   0.000000   0.000000
     14       0.000000   0.000000   0.000000   0.000000   0.000000   0.000000
     15       0.000000   0.000000   0.000000   0.000000   0.000000   0.000000
     16       0.000000   0.000000   0.000000   0.000000   0.000000   0.000000
     17       0.000000   0.000000   0.000000   0.000000   0.000000   0.000000
                  6          7          8          9         10         11    
      0      -0.964298   0.067332   0.008899  -0.157206  -0.001758   0.003521
      1       0.016517  -0.019397   0.484405  -0.056388  -0.026659  -0.010098
      2       0.133307   0.479820   0.018823   0.058298  -0.009958   0.026386
      3       0.078009  -0.009680   0.004068   0.398664   0.000263  -0.000539
      4      -0.001329   0.001896  -0.046056  -0.000991   0.004362   0.001650
      5      -0.010785  -0.045083  -0.002468  -0.058743   0.001630  -0.004327
      6       0.051103   0.107177   0.066725  -0.168462   0.782350  -0.212979
      7       0.063218  -0.019300   0.497206  -0.052170   0.030691   0.027859
      8       0.038015   0.487792   0.013797   0.064661  -0.095935  -0.024877
      9       0.045552   0.100272  -0.052881  -0.155232  -0.560529  -0.580534
     10      -0.070744  -0.022322   0.499686  -0.064553   0.055244   0.020609
     11       0.025761   0.486661   0.025894   0.062023   0.104123   0.028652
     12       0.032421   0.001292   0.012274  -0.172400  -0.207644   0.769561
     13       0.007188  -0.018272   0.496519  -0.056968   0.060082   0.007185
     14      -0.083020   0.504512   0.018633   0.054710   0.045909  -0.147795
     15       0.147213  -0.006931  -0.012926  -0.831100  -0.000400   0.000702
     16      -0.002591   0.004002  -0.102775   0.026275  -0.004951  -0.001879
     17      -0.020309  -0.103003  -0.002473   0.107480  -0.001839   0.004907
                 12         13         14         15         16         17    
      0      -0.008113  -0.010176   0.007405   0.011024  -0.013470  -0.004213
      1       0.000178   0.044419   0.079313  -0.000180  -0.041638   0.093084
      2       0.001234  -0.078671   0.043812  -0.001581  -0.092126  -0.041452
      3      -0.010939  -0.000004   0.000002  -0.000123   0.000018   0.000006
      4       0.000173   0.000009   0.000018   0.000002   0.000056  -0.000125
      5       0.001503  -0.000017   0.000009   0.000017   0.000124   0.000056
      6       0.571517   0.072529   0.095634   0.009243   0.003180  -0.003297
      7       0.027578  -0.471266   0.018200   0.469724   0.572346  -0.328779
      8      -0.052987   0.642336   0.108329   0.335844   0.402702  -0.248214
      9       0.571485  -0.004170  -0.134827  -0.019851  -0.001843  -0.036447
     10      -0.050795   0.261739  -0.222687  -0.522902  -0.010590  -0.734381
     11      -0.060630   0.407686  -0.598884   0.244321  -0.008092   0.344473
     12       0.566420   0.052508  -0.048692  -0.121932   0.156552   0.089134
     13      -0.005332  -0.316945  -0.735455   0.055306  -0.073669  -0.028049
     14      -0.124261  -0.117656  -0.028774  -0.561176   0.685362   0.389674
     15      -0.021201   0.000021  -0.000015   0.000310   0.000033   0.000010
     16       0.000362  -0.000101  -0.000186  -0.000005   0.000103  -0.000229
     17       0.002959   0.000182  -0.000099  -0.000043   0.000227   0.000102


-----------
IR SPECTRUM
-----------

 Mode   freq       eps      Int      T**2         TX        TY        TZ
       cm**-1   L/(mol*cm) km/mol    a.u.
----------------------------------------------------------------------------
  7:    167.75   0.001143    5.77  0.002126  ( 0.005368 -0.001837  0.045754)
  8:    167.84   0.001141    5.77  0.002122  ( 0.002404  0.045977  0.001573)
  9:    170.81   0.000401    2.03  0.000732  ( 0.026842 -0.002268 -0.002593)
 10:    786.19   0.000244    1.23  0.000097  ( 0.000575  0.009205  0.003450)
 11:    786.47   0.000245    1.24  0.000097  (-0.001080  0.003496 -0.009163)
 12:    853.24   0.004315   21.81  0.001578  (-0.039354  0.000614  0.005384)
 13:   1306.59   0.000719    3.63  0.000172  ( 0.001467 -0.006393  0.011344)
 14:   1306.96   0.000716    3.62  0.000171  (-0.001069 -0.011398 -0.006319)
 15:   3112.13   0.000002    0.01  0.000000  (-0.000465  0.000039  0.000045)
 16:   3323.30   0.000272    1.37  0.000026  ( 0.000650  0.002041  0.004577)
 17:   3323.36   0.000271    1.37  0.000025  ( 0.000205 -0.004609  0.002037)

* The epsilon (eps) is given for a Dirac delta lineshape.
** The dipole moment derivative (T) already includes vibrational overlap.

The first frequency considered to be a vibration is 7
The total number of vibrations considered is 11


--------------------------
THERMOCHEMISTRY AT 298.15K
--------------------------

Temperature         ...   298.15 K
Pressure            ...     1.00 atm
Total Mass          ...   130.39 AMU
Quasi RRHO          ...     True
Cut-Off Frequency   ...     1.00 cm^-1

Throughout the following assumptions are being made:
  (1) The electronic state is orbitally nondegenerate
  (2) There are no thermally accessible electronically excited states
  (3) Hindered rotations indicated by low frequency modes are not
      treated as such but are treated as vibrations and this may
      cause some error
  (4) All equations used are the standard statistical mechanics
      equations for an ideal gas
  (5) All vibrations are strictly harmonic

freq.     167.75  E(vib)   ...       0.38 
freq.     167.84  E(vib)   ...       0.38 
freq.     170.81  E(vib)   ...       0.38 
freq.     786.19  E(vib)   ...       0.05 
freq.     786.47  E(vib)   ...       0.05 
freq.     853.24  E(vib)   ...       0.04 
freq.    1306.59  E(vib)   ...       0.01 
freq.    1306.96  E(vib)   ...       0.01 
freq.    3112.13  E(vib)   ...       0.00 
freq.    3323.30  E(vib)   ...       0.00 
freq.    3323.36  E(vib)   ...       0.00 

------------
INNER ENERGY
------------

The inner energy is: U= E(el) + E(ZPE) + E(vib) + E(rot) + E(trans)
    E(el)   - is the total energy from the electronic structure calculation
              = E(kin-el) + E(nuc-el) + E(el-el) + E(nuc-nuc)
    E(ZPE)  - the the zero temperature vibrational energy from the frequency calculation
    E(vib)  - the the finite temperature correction to E(ZPE) due to population
              of excited vibrational states
    E(rot)  - is the rotational thermal energy
    E(trans)- is the translational thermal energy

Summary of contributions to the inner energy U:
Electronic energy                ...  -3073.19734584 Eh
Zero point energy                ...      0.03486656 Eh      21.88 kcal/mol
Thermal vibrational correction   ...      0.00208493 Eh       1.31 kcal/mol
Thermal rotational correction    ...      0.00141627 Eh       0.89 kcal/mol
Thermal translational correction ...      0.00141627 Eh       0.89 kcal/mol
-----------------------------------------------------------------------
Total thermal energy                  -3073.15756181 Eh


Summary of corrections to the electronic energy:
(perhaps to be used in another calculation)
Total thermal correction                  0.00491747 Eh       3.09 kcal/mol
Non-thermal (ZPE) correction              0.03486656 Eh      21.88 kcal/mol
-----------------------------------------------------------------------
Total correction                          0.03978402 Eh      24.96 kcal/mol


--------
ENTHALPY
--------

The enthalpy is H = U + kB*T
                kB is Boltzmann's constant
Total thermal energy              ...  -3073.15756181 Eh 
Thermal Enthalpy correction       ...      0.00094421 Eh       0.59 kcal/mol
-----------------------------------------------------------------------
Total Enthalpy                    ...  -3073.15661761 Eh


Note: Only C1 symmetry has been detected, increase convergence thresholds 
      if your molecule has a higher symmetry. Symmetry factor of 1.0 is   
      used for the rotational entropy correction. 
 

Note: Rotational entropy computed according to Herzberg 
Infrared and Raman Spectra, Chapter V,1, Van Nostrand Reinhold, 1945 
Point Group:  C1, Symmetry Number:   1  
Rotational constants in cm-1:     4.728533     0.028583     0.028583 

Vibrational entropy computed according to the QRRHO of S. Grimme
Chem.Eur.J. 2012 18 9955 using a reference frequency of 100.0 cm-1


-------
ENTROPY
-------

The entropy contributions are T*S = T*(S(el)+S(vib)+S(rot)+S(trans))
     S(el)   - electronic entropy
     S(vib)  - vibrational entropy
     S(rot)  - rotational entropy
     S(trans)- translational entropy
The entropies will be listed as multiplied by the temperature to get
units of energy

Electronic entropy                ...      0.00000000 Eh      0.00 kcal/mol
Vibrational entropy               ...      0.00378592 Eh      2.38 kcal/mol
Rotational entropy                ...      0.01213386 Eh      7.61 kcal/mol
Translational entropy             ...      0.01924704 Eh     12.08 kcal/mol
-----------------------------------------------------------------------
Final entropy term                ...      0.03516682 Eh     22.07 kcal/mol

In case the symmetry of your molecule has not been determined correctly
or in case you have a reason to use a different symmetry number we print 
out the resulting rotational entropy values for sn=1,12:

 non-linear molecules -----------------------------------
|  sn= 1 | S(rot)=       0.01213386 Eh      7.61 kcal/mol|
|  sn= 2 | S(rot)=       0.01147940 Eh      7.20 kcal/mol|
|  sn= 3 | S(rot)=       0.01109657 Eh      6.96 kcal/mol|
|  sn= 4 | S(rot)=       0.01082495 Eh      6.79 kcal/mol|
|  sn= 5 | S(rot)=       0.01061426 Eh      6.66 kcal/mol|
|  sn= 6 | S(rot)=       0.01044211 Eh      6.55 kcal/mol|
|  sn= 7 | S(rot)=       0.01029657 Eh      6.46 kcal/mol|
|  sn= 8 | S(rot)=       0.01017049 Eh      6.38 kcal/mol|
|  sn= 9 | S(rot)=       0.01005928 Eh      6.31 kcal/mol|
|  sn=10 | S(rot)=       0.00995980 Eh      6.25 kcal/mol|
|  sn=11 | S(rot)=       0.00986981 Eh      6.19 kcal/mol|
|  sn=12 | S(rot)=       0.00978766 Eh      6.14 kcal/mol|
 linear molecules ---------------------------------------
|  Dinfh | S(rot)=       0.00868230 Eh      5.45 kcal/mol|
|  Cinfv | S(rot)=       0.00933676 Eh      5.86 kcal/mol|
 --------------------------------------------------------


-------------------
GIBBS FREE ENERGY
-------------------

The Gibbs free energy is G = H - T*S

Total enthalpy                    ...  -3073.15661761 Eh 
Total entropy correction          ...     -0.03516682 Eh    -22.07 kcal/mol
-----------------------------------------------------------------------
Final Gibbs free energy         ...  -3073.19178442 Eh

For completeness - the Gibbs free energy minus the electronic energy
G-E(el)                           ...      0.00556142 Eh      3.49 kcal/mol


Maximum memory used throughout the entire PROP-calculation: 30.5 MB

--------------------------------
SUGGESTED CITATIONS FOR THIS RUN
--------------------------------

Below you find a list of papers that are relevant to this ORCA run
We neither can nor want to force you to cite these papers, but we appreciate if you do
You receive ORCA, which is the product of decades of hard work by many enthusiastic individuals, for free
The only thing we kindly ask in return is that you cite our papers,
We deeply appreciate it, if you show your appreciation for ORCA by not just citing the generic ORCA reference.

Please note that relegating all ORCA citations to the supporting information does *not* help us.
SI sections are not indexed - citations you put there will not count into any citation statistics
But we need these citations in order to attract the funding resources that allow us to do what we are doing

Therefore, if you are a happy ORCA user, please consider citing a few of the papers listed below in the main body of your paper

In addition to the list printed below, the program has created the file opt_TS.bibtex that contains the list in bibtex format
You can import this file easily into all common literature databanks and citation aid programs


List of essential papers. We consider these as the minimum necessary citations

  1. Neese,F.
     Software update: the ORCA program system, version 5.0
     WIRES Comput. Molec. Sci., 2022 12(1)e1606
     doi.org/10.1002/wcms.1606

List of papers to cite with high priority. The work reported in these papers was absolutely
necessary for this run to complete.
Our perspective: the developers of density functionals and basis sets usually get cited in chemistry papers
Good! But without the algorithms to do something with them, the functionals or basis sets would not do anything.
Hence, in our opinion, the algorithm design and method developments papers are equally worthy of getting cited

  1. Neese,F.
     An improvement of the resolution of the identity approximation for the formation of the Coulomb matrix
     J. Comp. Chem., 2003 24(14)1740-1747
     doi.org/10.1002/jcc.10318
  2. Bykov,D.; Petrenko,T.; Izsak,R.; Kossmann,S.; Becker,U.; Valeev,E.; Neese,F.
     Efficient implementation of the analytic second derivatives of Hartree-Fock and hybrid DFT energies: a detailed analysis of different approximations
     Molec. Phys., 2015 113 1961-1977
     doi.org/10.1080/00268976.2015.1025114
  3. Neese,F.
     The SHARK Integral Generation and Digestion System
     J. Comp. Chem., 2022  1-16
     doi.org/10.1002/jcc.26942
  4. Grimme,S.; Antony,J.; Ehrlich,S.; Krieg,H.
     A consistent and accurate ab initio parametrization of density functional dispersion correction (DFT-D) for the 94 elements H-Pu
     J. Chem. Phys., 2010 132 154104
     doi.org/10.1063/1.3382344
  5. Grimme,S.; Ehrlich,S.; Goerigk,L.
     Effect of the damping function in dispersion corrected density functional theory
     J. Comput. Chem., 2011 32(7)1456-1465
     doi.org/10.1002/jcc.21759

List of suggested additional citations. These are papers that are important in the 'surrounding' of 
of this run, or papers that preceded the highly important papers. If you like your results we are grateful for a citation.

  1. Neese,F.
     The ORCA program system
     WIRES Comput. Molec. Sci., 2012 2(1)73-78
     doi.org/10.1002/wcms.81
  2. Neese,F.
     Software update: the ORCA program system, version 4.0
     WIRES Comput. Molec. Sci., 2018 8(1)1-6
     doi.org/10.1002/wcms.1327
  3. Neese,F.; Wennmohs,F.; Becker,U.; Riplinger,C.
     The ORCA quantum chemistry program package
     J. Chem. Phys., 2020 152 Art. No. L224108
     doi.org/10.1063/5.0004608

List of optional additional citations

  1. Neese,F.
     Approximate second-order SCF convergence for spin unrestricted wavefunctions
     Chem. Phys. Lett., 2000 325(1-3)93-98
     doi.org/10.1016/s0009-2614(00)00662-x

Timings for individual modules:

Sum of individual times          ...       20.319 sec (=   0.339 min)
Startup calculation              ...        3.640 sec (=   0.061 min)  17.9 %
SCF iterations                   ...        5.877 sec (=   0.098 min)  28.9 %
Property integrals               ...        2.974 sec (=   0.050 min)  14.6 %
SCF Response                     ...        1.499 sec (=   0.025 min)   7.4 %
Property calculations            ...        3.321 sec (=   0.055 min)  16.3 %
SCF Gradient evaluation          ...        2.995 sec (=   0.050 min)  14.7 %
Geometry relaxation              ...        0.013 sec (=   0.000 min)   0.1 %
                             ****ORCA TERMINATED NORMALLY****
TOTAL RUN TIME: 0 days 0 hours 0 minutes 28 seconds 307 msec
