
                                 *****************
                                 * O   R   C   A *
                                 *****************

                                            #,                                       
                                            ###                                      
                                            ####                                     
                                            #####                                    
                                            ######                                   
                                           ########,                                 
                                     ,,################,,,,,                         
                               ,,#################################,,                 
                          ,,##########################################,,             
                       ,#########################################, ''#####,          
                    ,#############################################,,   '####,        
                  ,##################################################,,,,####,       
                ,###########''''           ''''###############################       
              ,#####''   ,,,,##########,,,,          '''####'''          '####       
            ,##' ,,,,###########################,,,                        '##       
           ' ,,###''''                  '''############,,,                           
         ,,##''                                '''############,,,,        ,,,,,,###''
      ,#''                                            '''#######################'''  
     '                                                          ''''####''''         
             ,#######,   #######,   ,#######,      ##                                
            ,#'     '#,  ##    ##  ,#'     '#,    #''#        ,####,    ,#,          
            ##       ##  ##   ,#'  ##            #'  '#       #'       ,# #          
            ##       ##  #######   ##           ,######,      #####,      #          
            '#,     ,#'  ##    ##  '#,     ,#' ,#      #,     #,   #      #          
             '#######'   ##     ##  '#######'  #'      '#     '####' #    #          



                #########################################################
                #                        -***-                          #
                #          Department of theory and spectroscopy        #
                #                                                       #
                #                      Frank Neese                      #
                #                                                       #
                #     Directorship, Architecture, Infrastructure        #
                #                    SHARK, DRIVERS                     #
                #        Core code/Algorithms in most modules           #
                #                                                       #
                #        Max Planck Institute fuer Kohlenforschung      #
                #                Kaiser Wilhelm Platz 1                 #
                #                 D-45470 Muelheim/Ruhr                 #
                #                      Germany                          #
                #                                                       #
                #                  All rights reserved                  #
                #                        -***-                          #
                #########################################################


                         Program Version 6.1.0  -  RELEASE   -
                                (GIT: $679e74b$)
                          ($2025-06-10 18:02:51 +0200$)


 With contributions from (in alphabetic order):
[Max-Planck-Institut fuer Kohlenforschung]                               
  Daniel Aravena         : Magnetic Suceptibility                        
  Michael Atanasov       : Ab Initio Ligand Field Theory (pilot matlab implementation)
  Alexander A. Auer      : GIAO ZORA, VPT2 properties, NMR spectrum      
  Ute Becker             : All parallelization in ORCA, NUMFREQ, NUMCALC 
  Giovanni Bistoni       : ED, misc. LED, open-shell LED, HFLD           
  Dmytro Bykov           : pre 5.0 version of the SCF Hessian            
  Marcos Casanova-Páez   : Triplet and SCS-CIS(D). UHF-(DLPNO)-IP/EA/STEOM-CCSD. UHF-CVS-IP/STEOM-CCSD   
  Vijay G. Chilkuri      : MRCI spin determinant printing, contributions to CSF-ICE 
  Pauline Colinet        : FMM embedding                                 
  Dipayan Datta          : RHF DLPNO-CCSD density                        
  Achintya Kumar Dutta   : EOM-CC, STEOM-CC                              
  Nicolas Foglia         : Exact transition moments, OPA infrastructure, MCD improvements    
  Dmitry Ganyushin       : Spin-Orbit,Spin-Spin,Magnetic field MRCI      
  Miquel Garcia-Rates    : C-PCM and meta-GGA Hessian, CCSD/C-PCM, Gaussian charge scheme 
  Tiago L. C. Gouveia    : GS-ROHF, GS-ROCIS                             
  Yang Guo               : DLPNO-NEVPT2, F12-NEVPT2, CIM, IAO-localization        
  Andreas Hansen         : Spin unrestricted coupled pair/coupled cluster methods 
  Ingolf Harden          : AUTO-CI MPn and infrastructure                
  Benjamin Helmich-Paris : MC-RPA, TRAH-(SCF,CASSCF), AVAS, COSX integrals, SCF dyn. polar., MC-PDFT, srDFT 
  Lee Huntington         : MR-EOM, pCC                                   
  Robert Izsak           : Overlap fitted RIJCOSX, COSX-SCS-MP3, EOM     
  Riya Kayal             : Wick's Theorem for AUTO-CI, AUTO-CI UHF-CCSDT 
  Emily Kempfer          : AUTO-CI RHF CISDT and CCSDT, approximate NEVPT4
  Christian Kollmar      : KDIIS, OOCD, Brueckner-CCSD(T), CCSD density, CASPT2, CASPT2-K, improved NEVPT2 
  Axel Koslowski         : Symmetry handling                             
  Simone Kossmann        : meta-GGA functionals, TD-DFT gradient, OOMP2, (MP2 Hessian; deprecated post 5.0) 
  Lucas Lang             : DCDCAS, Hyperfine gauge corrections, ICE-SOC+SSC
  Marvin Lechner         : AUTO-CI (C++ implementation), FIC-MRCC        
  Spencer Leger          : CASSCF response                               
  Dagmar Lenk            : GEPOL surface, SMD, ORCA-2-JSON               
  Dimitrios Liakos       : Extrapolation schemes; Compound Job, Property file
  Dimitrios Manganas     : Further ROCIS development; embedding schemes. LFT, Crystal Embedding 
  Dimitrios Pantazis     : SARC Basis sets                               
  Anastasios Papadopoulos: AUTO-CI, single reference methods and gradients 
  Taras Petrenko         : pre 6.0 DFT Hessian and TD-DFT gradient,  ECA, NRVS 
  Petra Pikulova         : Analytic Raman intensities                    
  Peter Pinski           : DLPNO-MP2, DLPNO-MP2 Gradient                 
  Shashank Vittal Rao    : ES-AILFT, MagRelax                            
  Christoph Reimann      : Effective Core Potentials                     
  Marius Retegan         : Local ZFS, SOC                                
  Christoph Riplinger    : Optimizer, TS searches, QM/MM, DLPNO-CCSD(T), (RO)-DLPNO pert. Triples 
  Michael Roemelt        : Original ROCIS implementation, recursive CI coupling coefficients
  Masaaki Saitow         : Open-shell DLPNO-CCSD energy and density      
  Barbara Sandhoefer     : DKH picture change effects                    
  Yorick L. A. Schmerwitz: GMF and freeze-and-release deltaSCF, NEB S-IDPP initial path                    
  Kantharuban Sivalingam : CASSCF convergence/infrastructure, NEVPT2, NEVPT3, NEVPT4(SD), FIC-MRCI and CEPA variants
  Bernardo de Souza      : ESD, SOC TD-DFT                               
  Georgi L. Stoychev     : AutoAux, RI-MP2 NMR, DLPNO-MP2 response, X2C  
  Van Anh Tran           : RI-MP2 g-tensors                              
  Willem Van den Heuvel  : Paramagnetic NMR                              
  Zikuan Wang            : NOTCH, Electric field optimization            
  Frank Wennmohs         : Technical directorship and infrastructure     
  Hang Xu                : AUTO-CI-Response properties                   
                                                                         
[FACCTs GmbH]                                                            
  Markus Bursch, Nicolas Foglia, Miquel Garcia-Rates, Ingolf Harden, Hagen Neugebauer, Anastasios Papadopoulos, 
  Christoph Riplinger, Bernardo de Souza, Georgi L. Stoychev                                                    
                                                                 
  APM, various basis sets, CI-OPT, improved COSX, DLPNO-Multilevel,           
  DOCKER, DRACO, updates on ESD, Fragmentator, GOAT, IRC, LR-CPCM, L-BFGS, MBIS, meta-GGA TD-DFT gradient, ML-optimized integration grids, 
  MM, NACMEs, nearIR, NEB, NEB-TS, NL-DFT gradient (VV10), 2- and 3-layer-ONIOM, interface openCOSMO-RS, QMMM,   
  Crystal-QMMM, RESP, rigid body optimization, SF, symmetry and pop. for TD-DFT, various functionals, SOLVATOR                                   
                                                                         
[Other institutions]                                                     
  V. Asgeirsson          : NEB                                           
  Christoph Bannwarth    : sTDA-DFT, sTD-DFT, PBEh-3c, B97-3c, D3        
  Giovanni Bistoni       : ETS/NOCV, ADLD/ADEX, COVALED                  
  Martin Brehm           : Molecular dynamics                            
  Ronald Cardenas        : ETS/NOCV                                      
  Martina Colucci        : COVALED                                       
  Sebastian Ehlert       : rSCAN, r2SCAN, r2SCAN-3c, D4, dhf basis sets  
  Marvin Friede          : D4 for Fr, Ra, Ac-Lr                          
  Lars Goerigk           : TD-DFT with DH, B97 family of functionals     
  Stefan Grimme          : VdW corrections, initial TS optimization, DFT functionals, gCP, sTDA/sTD-DF 
  Waldemar Hujo          : DFT-NL                                        
  H. Jonsson             : NEB                                           
  Holger Kruse           : gCP                                           
  Marcel Mueller         : wB97X-3c, vDZP basis set                      
  Hagen Neugebauer       : wr2SCAN, Native XTB                           
  Gianluca Regni         : ADLD/ADEX                                     
  Tobias Risthaus        : pre 6.0 range-separated hybrid DFT and stability analysis
  Lukas Wittmann         : regularized MP2, r2SCAN double-hybrids, wr2SCAN        
                                                                         
We gratefully acknowledge several colleagues who have allowed us to      
interface, adapt or use parts of their codes:                            
  Ed Valeev, F. Pavosevic, A. Kumar             : LibInt (2-el integral package), F12 methods 
  Garnet Chan, S. Sharma, J. Yang, R. Olivares  : DMRG                   
  Ulf Ekstrom                                   : XCFun DFT Library      
  Mihaly Kallay                                 : mrcc  (arbitrary order and MRCC methods)
  Frank Weinhold                                : gennbo (NPA and NBO analysis)           
  Simon Mueller                                 : openCOSMO-RS                            
  Christopher J. Cramer and Donald G. Truhlar   : smd solvation model                     
  S Lehtola, MJT Oliveira, MAL Marques          : LibXC Library                           
  Liviu Ungur et al                             : ANISO software                          


 Your calculation uses the libint2 library for the computation of 2-el integrals
 For citations please refer to: http://libint.valeyev.net

 Your ORCA version has been built with support for libXC version: 7.0.0
 For citations please refer to: https://libxc.gitlab.io

 This ORCA versions uses:
   CBLAS   interface :  Fast vector & matrix operations
   LAPACKE interface :  Fast linear algebra routines
   SCALAPACK package :  Parallel linear algebra routines
   Shared memory     :  Shared parallel matrices
   BLAS/LAPACK       :  OpenBLAS 0.3.29  USE64BITINT DYNAMIC_ARCH NO_AFFINITY Haswell SINGLE_THREADED
        Core in use  :  Haswell
   Copyright (c) 2011-2014, The OpenBLAS Project


  ***********************************
  * Starting time: Fri Sep 26 20:48:12 2025
  * Host name:     Host-001
  * Process ID:    43673
  * Working dir.:  /home/ppravatto/Documenti/Esperimenti/ChimicaComputazionale/SPyCCI/water_8ku6blk4_orca_PBE_def2-SVP_vacuum_scan
  ***********************************

NOTE: MaxCore=750 MB was set to SCF,MP2,MDCI,CIPSI,MRCI,RASCI and CIS
      => If you want to overwrite this, your respective input block should be placed after the MaxCore statement


***************************************
The coordinates will be read from file: water.xyz
***************************************


================================================================================

----- Orbital basis set information -----
Your calculation utilizes the basis: def2-SVP
   F. Weigend and R. Ahlrichs, Phys. Chem. Chem. Phys. 7, 3297 (2005).

----- AuxJ basis set information -----
Your calculation utilizes the auxiliary basis: def2/J
   H-Rn: F. Weigend, Phys. Chem. Chem. Phys. 8, 1057 (2006).
   Fr-Lr: K. Eichkorn, F. Weigend, O. Treutler, R. Ahlrichs; Theor. Chem. Acc. 97, 119 (1997).

================================================================================
                                        WARNINGS
                       Please study these warnings very carefully!
================================================================================



WARNING: Found flag for RIJCOSX approximation but no HF exchange needed!
  ===> : RIJCOSX  will be disabled and Split-RI-J is turned on

WARNING: Geometry Optimization
  ===> : Switching off AutoStart
         For restart on a previous wavefunction, please use MOREAD

================================================================================
                                       INPUT FILE
================================================================================
NAME = input.inp
|  1> %pal
|  2>   nprocs 8
|  3> end
|  4> 
|  5> %maxcore 750
|  6> 
|  7> ! PBE def2-SVP 
|  8> ! RIJCOSX def2/J
|  9> 
| 10> ! Opt
| 11> 
| 12> %geom
| 13>   scan B 0 1 = 0.8, 1.5, 10  end
| 14> end
| 15> 
| 16> * xyzfile 0 1 water.xyz
| 17> 
| 18> 
| 19>                          ****END OF INPUT****
================================================================================

                       ******************************
                       *    Relaxed Surface Scan    *
                       ******************************

                      Bond (  1,   0):   range=   0.80000000 ..   1.50000000  steps =   10

There is 1 parameter to be scanned.
There will be   10 constrained geometry optimizations.


         *************************************************************
         *               RELAXED SURFACE SCAN STEP   1               *
         *                                                           *
         *                 Bond (  1,   0)  :   0.80000000           *
         *************************************************************

Geometry optimization settings:
Update method            Update   .... BFGS
Choice of coordinates    CoordSys .... (2022) Redundant Internals
Initial Hessian          InHess   .... Almloef's Model
Max. no of cycles        MaxIter  .... 50

Convergence Tolerances:
Energy Change            TolE     ....  5.0000e-06 Eh
Max. Gradient            TolMAXG  ....  3.0000e-04 Eh/bohr
RMS Gradient             TolRMSG  ....  1.0000e-04 Eh/bohr
Max. Displacement        TolMAXD  ....  4.0000e-03 bohr
RMS Displacement         TolRMSD  ....  2.0000e-03 bohr
Strict Convergence                .... False

------------------------------------------------------------------------------
                        ORCA OPTIMIZATION COORDINATE SETUP
------------------------------------------------------------------------------

The optimization will be done in redundant internal coordinates (2022)
Making redundant internal coordinates   ...  (2022 redundants) done
Evaluating the initial hessian          ...  (Almloef) done
Evaluating the coordinates              ...  done
Calculating the B-matrix                .... done
Calculating the G-matrix                .... done
The number of degrees of freedom        ....    3
Storing new coordinates                 .... done

    -----------------------------------------------------------------
                    Redundant Internal Coordinates


    -----------------------------------------------------------------
         Definition                    Initial Value    Approx d2E/dq
    -----------------------------------------------------------------
      1. B(H   1,O   0)                  0.8000         0.503059 C 
      2. B(H   2,O   0)                  0.9697         0.503046   
      3. A(H   1,O   0,H   2)          103.5169         0.318376   
    -----------------------------------------------------------------

Number of atoms                         .... 3
Number of degrees of freedom            .... 3


         *************************************************************
         *                GEOMETRY OPTIMIZATION CYCLE   1            *
         *************************************************************
---------------------------------
CARTESIAN COORDINATES (ANGSTROEM)
---------------------------------
  O     -3.141479   -0.580746   -0.018142
  H     -2.345004   -0.634428    0.034254
  H     -3.455537   -1.237246    0.622708

----------------------------
CARTESIAN COORDINATES (A.U.)
----------------------------
  NO LB      ZA    FRAG     MASS         X           Y           Z
   0 O     8.0000    0    15.999   -5.936535   -1.097451   -0.034283
   1 H     1.0000    0     1.008   -4.431415   -1.198896    0.064730
   2 H     1.0000    0     1.008   -6.530018   -2.338055    1.176748

--------------------------------
INTERNAL COORDINATES (ANGSTROEM)
--------------------------------
 O      0   0   0     0.000000000000     0.00000000     0.00000000
 H      1   0   0     0.968993102246     0.00000000     0.00000000
 H      1   2   0     0.969000198658   103.97800340     0.00000000

---------------------------
INTERNAL COORDINATES (A.U.)
---------------------------
 O      0   0   0     0.000000000000     0.00000000     0.00000000
 H      1   0   0     1.831131588903     0.00000000     0.00000000
 H      1   2   0     1.831144999180   103.97800340     0.00000000

---------------------
BASIS SET INFORMATION
---------------------
There are 2 groups of distinct atoms

 Group   1 Type O   : 7s4p1d contracted to 3s2p1d pattern {511/31/1}
 Group   2 Type H   : 4s1p contracted to 2s1p pattern {31/1}

Atom   0O    basis set group =>   1
Atom   1H    basis set group =>   2
Atom   2H    basis set group =>   2
---------------------------------
AUXILIARY/J BASIS SET INFORMATION
---------------------------------
There are 2 groups of distinct atoms

 Group   1 Type O   : 12s5p4d2f1g contracted to 6s4p3d1f1g pattern {711111/2111/211/2/1}
 Group   2 Type H   : 5s2p1d contracted to 3s1p1d pattern {311/2/1}

Atom   0O    basis set group =>   1
Atom   1H    basis set group =>   2
Atom   2H    basis set group =>   2


           ************************************************************
           *        Program running with 8 parallel MPI-processes     *
           *              working on a common directory               *
           ************************************************************
------------------------------------------------------------------------------
                             ORCA STARTUP CALCULATIONS
                           -- RI-GTO INTEGRALS CHOSEN --
------------------------------------------------------------------------------
------------------------------------------------------------------------------
                   ___                                                        
                  /   \      - P O W E R E D   B Y -                         
                 /     \                                                     
                 |  |  |   _    _      __       _____    __    __             
                 |  |  |  | |  | |    /  \     |  _  \  |  |  /  |          
                  \  \/   | |  | |   /    \    | | | |  |  | /  /          
                 / \  \   | |__| |  /  /\  \   | |_| |  |  |/  /          
                |  |  |   |  __  | /  /__\  \  |    /   |      \           
                |  |  |   | |  | | |   __   |  |    \   |  |\   \          
                \     /   | |  | | |  |  |  |  | |\  \  |  | \   \       
                 \___/    |_|  |_| |__|  |__|  |_| \__\ |__|  \__/        
                                                                              
                      - O R C A' S   B I G   F R I E N D -                    
                                      &                                       
                       - I N T E G R A L  F E E D E R -                       
                                                                              
 v1 FN, 2020, v2 2021, v3 2022-2024                                           
------------------------------------------------------------------------------


----------------------
SHARK INTEGRAL PACKAGE
----------------------

Number of atoms                             ...      3
Number of basis functions                   ...     24
Number of shells                            ...     12
Maximum angular momentum                    ...      2
Integral batch strategy                     ... SHARK/LIBINT Hybrid
RI-J (if used) integral strategy            ... SPLIT-RIJ (Revised 2003 algorithm where possible)
Printlevel                                  ...      1
Contraction scheme used                     ... SEGMENTED contraction
Prescreening option                         ... SCHWARTZ
   Thresh                                   ... 2.500e-11
   Tcut                                     ... 2.500e-12
   Tpresel                                  ... 2.500e-12 
Coulomb Range Separation                    ... NOT USED
Exchange Range Separation                   ... NOT USED
Multipole approximations                    ... NOT USED
Finite Nucleus Model                        ... NOT USED
CABS basis                                  ... NOT available
Auxiliary Coulomb fitting basis             ... AVAILABLE
   # of basis functions in Aux-J            ...     71
   # of shells in Aux-J                     ...     25
   Maximum angular momentum in Aux-J        ...      4
Auxiliary J/K fitting basis                 ... NOT available
Auxiliary Correlation fitting basis         ... NOT available
Auxiliary 'external' fitting basis          ... NOT available

Checking pre-screening integrals            ... done (  0.0 sec) Dimension = 12
   => SHARK Basis and OBASIS are compatible. Storing Pre-screening
Shell pair information
Shell pair cut-off parameter TPreSel        ...   2.5e-12
Total number of shell pairs                 ...        78
Shell pairs after pre-screening             ...        78
Total number of primitive shell pairs       ...       272
Primitive shell pairs kept                  ...       266
          la=0 lb=0:     28 shell pairs
          la=1 lb=0:     28 shell pairs
          la=1 lb=1:     10 shell pairs
          la=2 lb=0:      7 shell pairs
          la=2 lb=1:      4 shell pairs
          la=2 lb=2:      1 shell pairs

Checking whether 4 symmetric matrices of dimension 24 fit in memory
:Max Core in MB      =    750.00
 MB in use           =      3.23
 MB left             =    746.77
 MB needed           =      0.01
 Data fit in memory  = YES
Calculating RI/J V-Matrix + Cholesky decomp.... done (  0.0 sec)
Calculating Nuclear repulsion               ... done (  0.0 sec) ENN=     10.037120990585 Eh

Diagonalization of the overlap matrix:
Smallest eigenvalue                        ... 3.003e-02
Time for diagonalization                   ...    0.000 sec
Threshold for overlap eigenvalues          ... 1.000e-07
Number of eigenvalues below threshold      ... 0
Time for construction of square roots      ...    0.001 sec
Total time needed                          ...    0.003 sec

-------------------
DFT GRID GENERATION
-------------------

General Integration Accuracy     IntAcc      ... 4.388
Radial Grid Type                 RadialGrid  ... OptM3 with GC (2021)
Angular Grid (max. ang.)         AngularGrid ... 4 (Lebedev-302)
Angular grid pruning method      GridPruning ... 4 (adaptive)
Weight generation scheme         WeightScheme... mBecke (2022)
Basis function cutoff            BFCut       ... 1.0000e-11
Integration weight cutoff        WCut        ... 1.0000e-14
Partially contracted basis set               ... off
Rotationally invariant grid construction     ... off
Angular grids for H and He will be reduced by one unit

Total number of grid points                  ...    12734
Total number of batches                      ...      201
Average number of points per batch           ...       63
Average number of grid points per atom       ...     4245
Grids setup in   0.1 sec
Initializing property integral containers    ... done (  0.0 sec)

SHARK setup successfully completed in   0.2 seconds

Maximum memory used throughout the entire STARTUP-calculation: 8.8 MB


           ************************************************************
           *        Program running with 8 parallel MPI-processes     *
           *              working on a common directory               *
           ************************************************************
-------------------------------------------------------------------------------
                                 ORCA GUESS
                   Start orbitals & Density for SCF / CASSCF
-------------------------------------------------------------------------------

------------
SCF SETTINGS
------------
Hamiltonian:
 Density Functional     Method          .... DFT(GTOs)
 Exchange Functional    Exchange        .... PBE
   PBE kappa parameter   XKappa         ....  0.804000
   PBE mue parameter    XMuePBE         ....  0.219520
 Correlation Functional Correlation     .... PBE
   PBE beta parameter  CBetaPBE         ....  0.066725
 LDA part of GGA corr.  LDAOpt          .... PW91-LDA
 Gradients option       PostSCFGGA      .... off
   NL short-range parameter             ....  6.400000
 RI-approximation to the Coulomb term is turned on
   Number of AuxJ basis functions       .... 71


General Settings:
 Integral files         IntName         .... input
 Hartree-Fock type      HFTyp           .... RHF
 Total Charge           Charge          ....    0
 Multiplicity           Mult            ....    1
 Number of Electrons    NEL             ....   10
 Basis Dimension        Dim             ....   24
 Nuclear Repulsion      ENuc            ....     10.0371209906 Eh

Convergence Acceleration:
 AO-DIIS                CNVDIIS         .... on
   Start iteration      DIISMaxIt       ....    12
   Startup error        DIISStart       ....  0.200000
   # of expansion vecs  DIISMaxEq       ....     5
   Bias factor          DIISBfac        ....   1.050
   Max. coefficient     DIISMaxC        ....  10.000
 MO-DIIS                CNVKDIIS        .... off
 Trust-Rad. Augm. Hess. CNVTRAH         .... auto
   Auto Start mean grad. ratio tolernc. ....  1.125000
   Auto Start start iteration           ....    50
   Auto Start num. interpolation iter.  ....    10
   Max. Number of Micro iterations      ....    24
   Max. Number of Macro iterations      .... Maxiter - #DIIS iter
   Number of Davidson start vectors     ....     2
   Converg. threshold    (grad. norm)   ....   1.000e-05
   Grad. Scal. Fac. for Micro threshold ....   0.100
   Minimum threshold for Micro iter.    ....   1.000e-02
   NR start threshold (gradient norm)   ....   1.000e-04
   Initial trust radius                 ....   0.400
   Minimum AH scaling param. (alpha)    ....   1.000
   Maximum AH scaling param. (alpha)    .... 1000.000
   Quad. conv. algorithm                .... NR
   White noise on init. David. guess    .... on
   Maximum white noise                  ....   0.010
   Pseudo random numbers                .... off
   Inactive MOs                         .... canonical
   Orbital update algorithm             .... Taylor
   Preconditioner                       .... Diag
   Full preconditioner red. dimension   ....   250
 SOSCF                 CNVSOSCF           .... on
   Start iteration     SOSCFMaxIt         ....   150
   Startup grad/error  SOSCFStart         ....  0.003300
   Hessian update      SOSCFHessUp        .... L-BFGS
   Autom. constraints  SOSCFAutoConstrain .... off
 Level Shifting         CNVShift        .... on
   Level shift para.    LevelShift      ....    0.2500
   Turn off err/grad.   ShiftErr        ....    0.0010
 Zerner damping         CNVZerner       .... off
 Static damping         CNVDamp         .... on
   Fraction old density DampFac         ....    0.7000
   Max. Damping (<1)    DampMax         ....    0.9800
   Min. Damping (>=0)   DampMin         ....    0.0000
   Turn off err/grad.   DampErr         ....    0.1000

SCF Procedure:
 Maximum # iterations   MaxIter         ....   125
 SCF integral mode      SCFMode         .... Direct
   Integral package                     .... SHARK and LIBINT hybrid scheme
 Reset frequency        DirectResetFreq ....    20
 Integral Threshold     Thresh          ....  2.500e-11 Eh
 Primitive CutOff       TCut            ....  2.500e-12 Eh

Convergence Tolerance:
 Convergence Check Mode ConvCheckMode   .... Total+1el-Energy
 Convergence forced     ConvForced      .... 0
 Energy Change          TolE            ....  1.000e-08 Eh
 1-El. energy change                    ....  1.000e-05 Eh
 Orbital Gradient       TolG            ....  1.000e-05
 Orbital Rotation angle TolX            ....  1.000e-05
 DIIS Error             TolErr          ....  5.000e-07

------------------------------
INITIAL GUESS: MODEL POTENTIAL
------------------------------
Loading Hartree-Fock densities                     ... done
Calculating cut-offs                               ... done
Initializing the effective Hamiltonian             ... done
Setting up the integral package (SHARK)            ... done
Starting the Coulomb interaction                   ... done (   0.0 sec)
Making the grid                                    ... done (   0.0 sec)
Mapping shells                                     ... done
Starting the XC term evaluation                    ... done (   0.0 sec)
  promolecular density results
     # of electrons  =      9.998972120
     EX              =     -8.768791228
     EC              =     -0.319012740
     EX+EC           =     -9.087803967
Transforming the Hamiltonian                       ... done (   0.0 sec)
Diagonalizing the Hamiltonian                      ... done (   0.0 sec)
Back transforming the eigenvectors                 ... done (   0.0 sec)
Now organizing SCF variables                       ... done
                      ------------------
                      INITIAL GUESS DONE (   0.0 sec)
                      ------------------
             **** ENERGY FILE WAS UPDATED (input.en.tmp) ****
Finished Guess after   0.2 sec
Maximum memory used throughout the entire GUESS-calculation: 5.4 MB


           ************************************************************
           *        Program running with 8 parallel MPI-processes     *
           *              working on a common directory               *
           ************************************************************

-------------------------------------------------------------------------------------------
                                      ORCA LEAN-SCF
                              memory conserving SCF solver
-------------------------------------------------------------------------------------------

----------------------------------------D-I-I-S--------------------------------------------
Iteration    Energy (Eh)           Delta-E    RMSDP     MaxDP     DIISErr   Damp  Time(sec)
-------------------------------------------------------------------------------------------
               ***  Starting incremental Fock matrix formation  ***
    1    -76.1290083777224709     0.00e+00  4.81e-02  9.98e-02  3.18e-01  0.700   0.1
    2    -76.1801380867464673    -5.11e-02  2.60e-02  5.37e-02  1.22e-01  0.700   0.1
                               ***Turning on AO-DIIS***
    3    -76.1958797500528391    -1.57e-02  6.22e-03  1.10e-02  1.94e-02  0.700   0.1
    4    -76.2062080779830637    -1.03e-02  6.83e-03  1.33e-02  5.06e-03  0.000   0.1
    5    -76.2304489890303074    -2.42e-02  2.54e-03  4.51e-03  6.22e-03  0.000   0.2
                              *** Initializing SOSCF ***
---------------------------------------S-O-S-C-F--------------------------------------
Iteration    Energy (Eh)           Delta-E    RMSDP     MaxDP     MaxGrad    Time(sec)
--------------------------------------------------------------------------------------
    6    -76.2305220424971282    -7.31e-05  8.20e-04  1.68e-03  1.00e-03     0.1
               *** Restarting incremental Fock matrix formation ***
    7    -76.2305262757497246    -4.23e-06  5.54e-04  1.29e-03  3.20e-04     0.1
    8    -76.2305267030353804    -4.27e-07  1.39e-04  2.91e-04  1.95e-04     0.1
    9    -76.2305267928648362    -8.98e-08  1.06e-04  1.81e-04  1.38e-04     0.1
   10    -76.2305268520349983    -5.92e-08  2.16e-05  4.18e-05  1.59e-05     0.1
   11    -76.2305268541116874    -2.08e-09  6.12e-06  1.29e-05  7.40e-06     0.1
                 **** Energy Check signals convergence ****

               *****************************************************
               *                     SUCCESS                       *
               *           SCF CONVERGED AFTER  11 CYCLES          *
               *****************************************************

             **** ENERGY FILE WAS UPDATED (input.en.tmp) ****

----------------
TOTAL SCF ENERGY
----------------

Total Energy       :        -76.23052685444698 Eh           -2074.33809 eV

Components:
Nuclear Repulsion  :         10.03712099058461 Eh             273.12395 eV
Electronic Energy  :        -86.26764784503159 Eh           -2347.46204 eV
One Electron Energy:       -124.49630714695901 Eh           -3387.71675 eV
Two Electron Energy:         38.22865930192742 Eh            1040.25471 eV

Virial components:
Potential Energy   :       -152.38628607419787 Eh           -4146.64166 eV
Kinetic Energy     :         76.15575921975091 Eh            2072.30356 eV
Virial Ratio       :          2.00098177256011

DFT components:
N(Alpha)           :        4.999999584338 electrons
N(Beta)            :        4.999999584338 electrons
N(Total)           :        9.999999168677 electrons
E(X)               :       -9.015412844701 Eh       
E(C)               :       -0.334208579477 Eh       
E(XC)              :       -9.349621424178 Eh       

---------------
SCF CONVERGENCE
---------------

  Last Energy change         ...    2.0767e-09  Tolerance :   1.0000e-08
  Last MAX-Density change    ...    1.2907e-05  Tolerance :   1.0000e-07
  Last RMS-Density change    ...    6.1220e-06  Tolerance :   5.0000e-09
  Last DIIS Error            ...    1.0015e-03  Tolerance :   5.0000e-07
  Last Orbital Gradient      ...    7.4035e-06  Tolerance :   1.0000e-05
  Last Orbital Rotation      ...    5.7859e-06  Tolerance :   1.0000e-05


----------------
ORBITAL ENERGIES
----------------

  NO   OCC          E(Eh)            E(eV) 
   0   2.0000     -18.722795      -509.4731 
   1   2.0000      -0.932311       -25.3695 
   2   2.0000      -0.483703       -13.1622 
   3   2.0000      -0.310832        -8.4582 
   4   2.0000      -0.235582        -6.4105 
   5   0.0000       0.039521         1.0754 
   6   0.0000       0.129031         3.5111 
   7   0.0000       0.527883        14.3644 
   8   0.0000       0.716458        19.4958 
   9   0.0000       0.864052        23.5120 
  10   0.0000       0.867058        23.5939 
  11   0.0000       0.973336        26.4858 
  12   0.0000       1.056704        28.7544 
  13   0.0000       1.314986        35.7826 
  14   0.0000       1.340057        36.4648 
  15   0.0000       1.508623        41.0517 
*Only the first 10 virtual orbitals were printed.

                    ********************************
                    * MULLIKEN POPULATION ANALYSIS *
                    ********************************

-----------------------
MULLIKEN ATOMIC CHARGES
-----------------------
   0 O :   -0.191229
   1 H :    0.055945
   2 H :    0.135285
Sum of atomic charges:   -0.0000000

--------------------------------
MULLIKEN REDUCED ORBITAL CHARGES
--------------------------------
  0 O s       :     3.579696  s :     3.579696
      pz      :     1.672451  p :     4.597237
      px      :     1.265886
      py      :     1.658900
      dz2     :     0.002592  d :     0.014296
      dxz     :     0.001231
      dyz     :     0.003083
      dx2y2   :     0.006132
      dxy     :     0.001258

  1 H s       :     0.851879  s :     0.851879
      pz      :     0.029325  p :     0.092177
      px      :     0.033635
      py      :     0.029217

  2 H s       :     0.792996  s :     0.792996
      pz      :     0.025912  p :     0.071719
      px      :     0.019620
      py      :     0.026187



                     *******************************
                     * LOEWDIN POPULATION ANALYSIS *
                     *******************************

----------------------
LOEWDIN ATOMIC CHARGES
----------------------
   0 O :   -0.039950
   1 H :   -0.046448
   2 H :    0.086397

-------------------------------
LOEWDIN REDUCED ORBITAL CHARGES
-------------------------------
  0 O s       :     3.324310  s :     3.324310
      pz      :     1.647522  p :     4.688325
      px      :     1.402983
      py      :     1.637819
      dz2     :     0.004579  d :     0.027316
      dxz     :     0.001552
      dyz     :     0.006027
      dx2y2   :     0.013530
      dxy     :     0.001628

  1 H s       :     0.770983  s :     0.770983
      pz      :     0.086378  p :     0.275464
      px      :     0.103509
      py      :     0.085577

  2 H s       :     0.744360  s :     0.744360
      pz      :     0.067700  p :     0.169242
      px      :     0.033134
      py      :     0.068409



                      *****************************
                      * MAYER POPULATION ANALYSIS *
                      *****************************

  NA   - Mulliken gross atomic population
  ZA   - Total nuclear charge
  QA   - Mulliken gross atomic charge
  VA   - Mayer's total valence
  BVA  - Mayer's bonded valence
  FA   - Mayer's free valence

  ATOM       NA         ZA         QA         VA         BVA        FA
  0 O      8.1912     8.0000    -0.1912     2.0858     2.0858    -0.0000
  1 H      0.9441     1.0000     0.0559     1.0844     1.0844    -0.0000
  2 H      0.8647     1.0000     0.1353     1.0215     1.0215    -0.0000

  Mayer bond orders larger than 0.100000
B(  0-O ,  1-H ) :   1.0743 B(  0-O ,  2-H ) :   1.0115 

-------
TIMINGS
-------

Total SCF time: 0 days 0 hours 0 min 1 sec 

Total time                  ....       1.226 sec
Sum of individual times     ....       1.099 sec  ( 89.7%)

SCF preparation             ....       0.199 sec  ( 16.2%)
Fock matrix formation       ....       0.753 sec  ( 61.4%)
  Startup                   ....       0.004 sec  (  0.6% of F)
  Split-RI-J                ....       0.029 sec  (  3.9% of F)
  XC integration            ....       0.650 sec  ( 86.4% of F)
    XC Preparation          ....       0.000 sec  (  0.0% of XC)
    Basis function eval.    ....       0.024 sec  (  3.7% of XC)
    Density eval.           ....       0.009 sec  (  1.4% of XC)
    XC-Functional eval.     ....       0.029 sec  (  4.5% of XC)
    XC-Potential eval.      ....       0.022 sec  (  3.3% of XC)
Diagonalization             ....       0.000 sec  (  0.0%)
Density matrix formation    ....       0.025 sec  (  2.0%)
Total Energy calculation    ....       0.016 sec  (  1.3%)
Population analysis         ....       0.008 sec  (  0.7%)
Orbital Transformation      ....       0.011 sec  (  0.9%)
Orbital Orthonormalization  ....       0.000 sec  (  0.0%)
DIIS solution               ....       0.056 sec  (  4.5%)
SOSCF solution              ....       0.033 sec  (  2.7%)
Finished LeanSCF after   1.2 sec

Maximum memory used throughout the entire LEANSCF-calculation: 3.8 MB

-------------------------   --------------------
FINAL SINGLE POINT ENERGY       -76.230526854447
-------------------------   --------------------



           ************************************************************
           *        Program running with 8 parallel MPI-processes     *
           *              working on a common directory               *
           ************************************************************
------------------------------------------------------------------------------
                         ORCA SCF GRADIENT CALCULATION
------------------------------------------------------------------------------

Nuc. rep. gradient        (SHARK) ... done (  0.0 sec)
HCore & Overlap gradient  (SHARK) ... done (  0.0 sec)
Split-RIJ-J gradient      (SHARK) ... done (  0.1 sec)
XC gradient                       ... done (  0.0 sec)

------------------
CARTESIAN GRADIENT
------------------

   1   O   :    0.311569415   -0.018365876    0.017926587
   2   H   :   -0.315719011    0.017994512   -0.017562713
   3   H   :    0.004149596    0.000371364   -0.000363874

Difference to translation invariance:
           :    0.0000000000   -0.0000000000   -0.0000000000

Difference to rotation invariance:
           :    0.0000016246   -0.0000171806   -0.0000163933

Norm of the Cartesian gradient     ...    0.4450420242
RMS gradient                       ...    0.1483473414
MAX gradient                       ...    0.3157190112

-------
TIMINGS
-------

Total SCF gradient time     ....        0.130 sec

Densities                   ....       0.001 sec  (  0.4%)
One electron gradient       ....       0.005 sec  (  3.8%)
RI-J Coulomb gradient       ....       0.095 sec  ( 72.6%)
XC gradient                 ....       0.030 sec  ( 23.0%)

Maximum memory used throughout the entire SCFGRAD-calculation: 5.4 MB
------------------------------------------------------------------------------
                         ORCA GEOMETRY RELAXATION STEP
------------------------------------------------------------------------------

Reading the OPT-File                    .... done
Getting information on internals        .... done
Copying old internal coords+grads       .... done
Making the new internal coordinates     .... (2022 redundants) done
Validating the new internal coordinates .... (2022 redundants) done
Calculating the B-matrix                .... done
Calculating the G,G- and P matrices     .... done
Transforming gradient to internals      .... done
Projecting the internal gradient        .... done
Number of atoms                         ....   3
Number of internal coordinates          ....   3
Current Energy                          ....   -76.230526854 Eh
Current gradient norm                   ....     0.445042024 Eh/bohr
Maximum allowed component of the step   ....  0.300
Current trust radius                    ....  0.300
Evaluating the initial hessian          ....  (Almloef) done
Projecting the Hessian                  .... done
Forming the augmented Hessian           .... done
Diagonalizing the augmented Hessian     .... done
Last element of RFO vector              ....  0.999802349
Lowest eigenvalues of augmented Hessian:
 -0.000141558  0.352963170  0.501765853
Length of the computed step             ....  0.019885150
The final length of the internal step   ....  0.019885150
Converting the step to Cartesian space:
 Initial RMS(Int)=    0.0114806967
Transforming coordinates:
 Iter   0:  RMS(Cart)=    0.0062855006 RMS(Int)=    0.0114779455
Imposing constraints:
 Iter   0:  RMS(Cart)=    0.0000000005 RMS(Int)=    0.0000000000
CONVERGED
done
Storing new coordinates                 .... done

                                .--------------------.
          ----------------------|Geometry convergence|-------------------------
          Item                value                   Tolerance       Converged
          ---------------------------------------------------------------------
          RMS gradient        0.0041215948            0.0001000000      NO
          MAX gradient        0.0068994585            0.0003000000      NO
          RMS step            0.0114806967            0.0020000000      NO
          MAX step            0.0195468765            0.0040000000      NO
          -------------------------------------------------------------------------
          ........................................................
          Max(Bonds)      0.0019      Max(Angles)    1.12
          Max(Dihed)        0.00      Max(Improp)    0.00
          ---------------------------------------------------------------------

The optimization has not yet converged - more geometry cycles are needed


    ---------------------------------------------------------------------------
                         Redundant Internal Coordinates
                            (Angstroem and degrees)

        Definition                    Value    dE/dq     Step     New-Value
    ----------------------------------------------------------------------------
     1. B(H   1,O   0)                0.8000 -0.316689  0.0000    0.8000 C 
     2. B(H   2,O   0)                0.9697 -0.001833  0.0019    0.9716   
     3. A(H   1,O   0,H   2)          103.52 -0.006899    1.12    104.64   
    ----------------------------------------------------------------------------

Geometry step timings:
Preparation and reading OPT file:      0.000 s ( 5.749 %)
Internal coordinates            :      0.000 s ( 6.446 %)
B/P matrices and projection     :      0.000 s (20.557 %)
Hessian update/contruction      :      0.000 s (19.512 %)
Making the step                 :      0.000 s ( 9.059 %)
Converting the step to Cartesian:      0.000 s ( 7.143 %)
Storing new data                :      0.000 s ( 5.401 %)
Checking convergence            :      0.000 s ( 8.711 %)
Final printing                  :      0.000 s (17.422 %)
Total time                      :      0.001 s

Time for energy+gradient        :      3.865 s
Time for complete geometry iter :      4.125 s

         *************************************************************
         *                GEOMETRY OPTIMIZATION CYCLE   2            *
         *************************************************************
---------------------------------
CARTESIAN COORDINATES (ANGSTROEM)
---------------------------------
  O     -3.138920   -0.583052   -0.015891
  H     -2.341667   -0.630452    0.030372
  H     -3.461433   -1.238916    0.624339

----------------------------
CARTESIAN COORDINATES (A.U.)
----------------------------
  NO LB      ZA    FRAG     MASS         X           Y           Z
   0 O     8.0000    0    15.999   -5.931700   -1.101809   -0.030029
   1 H     1.0000    0     1.008   -4.425109   -1.191381    0.057395
   2 H     1.0000    0     1.008   -6.541160   -2.341212    1.179829

--------------------------------
INTERNAL COORDINATES (ANGSTROEM)
--------------------------------
 O      0   0   0     0.000000000000     0.00000000     0.00000000
 H      1   0   0     0.800000001513     0.00000000     0.00000000
 H      1   2   0     0.971629988153   104.63680662     0.00000000

---------------------------
INTERNAL COORDINATES (A.U.)
---------------------------
 O      0   0   0     0.000000000000     0.00000000     0.00000000
 H      1   0   0     1.511780909995     0.00000000     0.00000000
 H      1   2   0     1.836114581114   104.63680662     0.00000000



           ************************************************************
           *        Program running with 8 parallel MPI-processes     *
           *              working on a common directory               *
           ************************************************************
------------------------------------------------------------------------------
                   ___                                                        
                  /   \      - P O W E R E D   B Y -                         
                 /     \                                                     
                 |  |  |   _    _      __       _____    __    __             
                 |  |  |  | |  | |    /  \     |  _  \  |  |  /  |          
                  \  \/   | |  | |   /    \    | | | |  |  | /  /          
                 / \  \   | |__| |  /  /\  \   | |_| |  |  |/  /          
                |  |  |   |  __  | /  /__\  \  |    /   |      \           
                |  |  |   | |  | | |   __   |  |    \   |  |\   \          
                \     /   | |  | | |  |  |  |  | |\  \  |  | \   \       
                 \___/    |_|  |_| |__|  |__|  |_| \__\ |__|  \__/        
                                                                              
                      - O R C A' S   B I G   F R I E N D -                    
                                      &                                       
                       - I N T E G R A L  F E E D E R -                       
                                                                              
 v1 FN, 2020, v2 2021, v3 2022-2024                                           
------------------------------------------------------------------------------


----------------------
SHARK INTEGRAL PACKAGE
----------------------

Number of atoms                             ...      3
Number of basis functions                   ...     24
Number of shells                            ...     12
Maximum angular momentum                    ...      2
Integral batch strategy                     ... SHARK/LIBINT Hybrid
RI-J (if used) integral strategy            ... SPLIT-RIJ (Revised 2003 algorithm where possible)
Printlevel                                  ...      1
Contraction scheme used                     ... SEGMENTED contraction
Prescreening option                         ... SCHWARTZ
   Thresh                                   ... 2.500e-11
   Tcut                                     ... 2.500e-12
   Tpresel                                  ... 2.500e-12 
Coulomb Range Separation                    ... NOT USED
Exchange Range Separation                   ... NOT USED
Multipole approximations                    ... NOT USED
Finite Nucleus Model                        ... NOT USED
CABS basis                                  ... NOT available
Auxiliary Coulomb fitting basis             ... AVAILABLE
   # of basis functions in Aux-J            ...     71
   # of shells in Aux-J                     ...     25
   Maximum angular momentum in Aux-J        ...      4
Auxiliary J/K fitting basis                 ... NOT available
Auxiliary Correlation fitting basis         ... NOT available
Auxiliary 'external' fitting basis          ... NOT available

Checking pre-screening integrals            ... done (  0.0 sec) Dimension = 12
   => SHARK Basis and OBASIS are compatible. Storing Pre-screening
Shell pair information
Shell pair cut-off parameter TPreSel        ...   2.5e-12
Total number of shell pairs                 ...        78
Shell pairs after pre-screening             ...        78
Total number of primitive shell pairs       ...       272
Primitive shell pairs kept                  ...       266
          la=0 lb=0:     28 shell pairs
          la=1 lb=0:     28 shell pairs
          la=1 lb=1:     10 shell pairs
          la=2 lb=0:      7 shell pairs
          la=2 lb=1:      4 shell pairs
          la=2 lb=2:      1 shell pairs

Checking whether 4 symmetric matrices of dimension 24 fit in memory
:Max Core in MB      =    750.00
 MB in use           =      3.23
 MB left             =    746.77
 MB needed           =      0.01
 Data fit in memory  = YES
Calculating RI/J V-Matrix + Cholesky decomp.... done (  0.0 sec)
Calculating Nuclear repulsion               ... done (  0.0 sec) ENN=     10.025163224262 Eh

Diagonalization of the overlap matrix:
Smallest eigenvalue                        ... 3.017e-02
Time for diagonalization                   ...    0.000 sec
Threshold for overlap eigenvalues          ... 1.000e-07
Number of eigenvalues below threshold      ... 0
Time for construction of square roots      ...    0.001 sec
Total time needed                          ...    0.003 sec

-------------------
DFT GRID GENERATION
-------------------

General Integration Accuracy     IntAcc      ... 4.388
Radial Grid Type                 RadialGrid  ... OptM3 with GC (2021)
Angular Grid (max. ang.)         AngularGrid ... 4 (Lebedev-302)
Angular grid pruning method      GridPruning ... 4 (adaptive)
Weight generation scheme         WeightScheme... mBecke (2022)
Basis function cutoff            BFCut       ... 1.0000e-11
Integration weight cutoff        WCut        ... 1.0000e-14
Partially contracted basis set               ... off
Rotationally invariant grid construction     ... off
Angular grids for H and He will be reduced by one unit

Total number of grid points                  ...    12730
Total number of batches                      ...      201
Average number of points per batch           ...       63
Average number of grid points per atom       ...     4243
Grids setup in   0.1 sec
Initializing property integral containers    ... done (  0.0 sec)

SHARK setup successfully completed in   0.2 seconds

Maximum memory used throughout the entire STARTUP-calculation: 8.8 MB


           ************************************************************
           *        Program running with 8 parallel MPI-processes     *
           *              working on a common directory               *
           ************************************************************
Occupation numbers will be reassigned to an Aufbau configuration
             **** ENERGY FILE WAS UPDATED (input.en.tmp) ****
Finished Guess after   0.2 sec
Maximum memory used throughout the entire GUESS-calculation: 5.4 MB


           ************************************************************
           *        Program running with 8 parallel MPI-processes     *
           *              working on a common directory               *
           ************************************************************
----------------------------------------D-I-I-S--------------------------------------------
Iteration    Energy (Eh)           Delta-E    RMSDP     MaxDP     DIISErr   Damp  Time(sec)
-------------------------------------------------------------------------------------------
               ***  Starting incremental Fock matrix formation  ***
                              *** Initializing SOSCF ***
---------------------------------------S-O-S-C-F--------------------------------------
Iteration    Energy (Eh)           Delta-E    RMSDP     MaxDP     MaxGrad    Time(sec)
--------------------------------------------------------------------------------------
    1    -76.2306052749308236     0.00e+00  2.31e-03  4.54e-03  2.53e-04     0.1
               *** Restarting incremental Fock matrix formation ***
    2    -76.2306300319108345    -2.48e-05  3.87e-04  7.67e-04  2.65e-04     0.1
    3    -76.2306305896658785    -5.58e-07  3.25e-05  5.83e-05  3.88e-05     0.1
    4    -76.2306305948725651    -5.21e-09  1.39e-05  2.24e-05  1.73e-05     0.1
                 **** Energy Check signals convergence ****

               *****************************************************
               *                     SUCCESS                       *
               *           SCF CONVERGED AFTER   4 CYCLES          *
               *****************************************************

             **** ENERGY FILE WAS UPDATED (input.en.tmp) ****

----------------
TOTAL SCF ENERGY
----------------

Total Energy       :        -76.23063059688234 Eh           -2074.34092 eV

Components:
Nuclear Repulsion  :         10.02516322426164 Eh             272.79856 eV
Electronic Energy  :        -86.25579382114397 Eh           -2347.13948 eV
One Electron Energy:       -124.47866614350352 Eh           -3387.23671 eV
Two Electron Energy:         38.22287232235955 Eh            1040.09723 eV

Virial components:
Potential Energy   :       -152.38026054909233 Eh           -4146.47769 eV
Kinetic Energy     :         76.14962995221001 Eh            2072.13678 eV
Virial Ratio       :          2.00106370372020

DFT components:
N(Alpha)           :        4.999999527942 electrons
N(Beta)            :        4.999999527942 electrons
N(Total)           :        9.999999055884 electrons
E(X)               :       -9.014511557768 Eh       
E(C)               :       -0.334160845710 Eh       
E(XC)              :       -9.348672403478 Eh       

---------------
SCF CONVERGENCE
---------------

  Last Energy change         ...    5.2067e-09  Tolerance :   1.0000e-08
  Last MAX-Density change    ...    2.2391e-05  Tolerance :   1.0000e-07
  Last RMS-Density change    ...    1.3907e-05  Tolerance :   5.0000e-09
  Last DIIS Error            ...    2.5599e-03  Tolerance :   5.0000e-07
  Last Orbital Gradient      ...    1.7305e-05  Tolerance :   1.0000e-05
  Last Orbital Rotation      ...    9.1023e-06  Tolerance :   1.0000e-05


Total SCF time: 0 days 0 hours 0 min 0 sec 
Finished LeanSCF after   0.6 sec

Maximum memory used throughout the entire LEANSCF-calculation: 3.9 MB

-------------------------   --------------------
FINAL SINGLE POINT ENERGY       -76.230630596882
-------------------------   --------------------



           ************************************************************
           *        Program running with 8 parallel MPI-processes     *
           *              working on a common directory               *
           ************************************************************
------------------------------------------------------------------------------
                         ORCA SCF GRADIENT CALCULATION
------------------------------------------------------------------------------

Nuc. rep. gradient        (SHARK) ... done (  0.0 sec)
HCore & Overlap gradient  (SHARK) ... done (  0.0 sec)
Split-RIJ-J gradient      (SHARK) ... done (  0.1 sec)
XC gradient                       ... done (  0.0 sec)

------------------
CARTESIAN GRADIENT
------------------

   1   O   :    0.313694462   -0.015974410    0.015591836
   2   H   :   -0.315215398    0.017046209   -0.016637062
   3   H   :    0.001520937   -0.001071799    0.001045226

Difference to translation invariance:
           :   -0.0000000000   -0.0000000000    0.0000000000

Difference to rotation invariance:
           :    0.0000012289   -0.0000151214   -0.0000145244

Norm of the Cartesian gradient     ...    0.4459093731
RMS gradient                       ...    0.1486364577
MAX gradient                       ...    0.3152153980

-------
TIMINGS
-------

Total SCF gradient time     ....        0.137 sec

Densities                   ....       0.000 sec  (  0.2%)
One electron gradient       ....       0.005 sec  (  3.7%)
RI-J Coulomb gradient       ....       0.098 sec  ( 71.7%)
XC gradient                 ....       0.033 sec  ( 24.2%)

Maximum memory used throughout the entire SCFGRAD-calculation: 5.4 MB
------------------------------------------------------------------------------
                         ORCA GEOMETRY RELAXATION STEP
------------------------------------------------------------------------------

Reading the OPT-File                    .... done
Getting information on internals        .... done
Copying old internal coords+grads       .... done
Making the new internal coordinates     .... (2022 redundants) done
Validating the new internal coordinates .... (2022 redundants) done
Calculating the B-matrix                .... done
Calculating the G,G- and P matrices     .... done
Transforming gradient to internals      .... done
Projecting the internal gradient        .... done
Number of atoms                         ....   3
Number of internal coordinates          ....   3
Current Energy                          ....   -76.230630597 Eh
Current gradient norm                   ....     0.445909373 Eh/bohr
Maximum allowed component of the step   ....  0.300
Current trust radius                    ....  0.300
Updating the Hessian (BFGS)             .... done
Forming the augmented Hessian           .... done
Diagonalizing the augmented Hessian     .... done
Last element of RFO vector              ....  0.999751286
Lowest eigenvalues of augmented Hessian:
 -0.000081316  0.162418129  0.580434080
Length of the computed step             ....  0.022307277
The final length of the internal step   ....  0.022307277
Converting the step to Cartesian space:
 Initial RMS(Int)=    0.0128791126
Transforming coordinates:
 Iter   0:  RMS(Cart)=    0.0063123905 RMS(Int)=    0.0128813648
Imposing constraints:
 Iter   0:  RMS(Cart)=    0.0000000005 RMS(Int)=    0.0000000000
CONVERGED
done
Storing new coordinates                 .... done
The predicted energy change is          ....    -0.000040678
Previously predicted energy change      ....    -0.000070807
Actually observed energy change         ....    -0.000103742
Ratio of predicted to observed change   ....     1.465147973
New trust radius                        ....     0.300000000

                                .--------------------.
          ----------------------|Geometry convergence|-------------------------
          Item                value                   Tolerance       Converged
          ---------------------------------------------------------------------
          Energy change      -0.0001037424            0.0000050000      NO
          RMS gradient        0.0021208408            0.0001000000      NO
          MAX gradient        0.0035589629            0.0003000000      NO
          RMS step            0.0128791126            0.0020000000      NO
          MAX step            0.0221293098            0.0040000000      NO
          -------------------------------------------------------------------------
          ........................................................
          Max(Bonds)      0.0015      Max(Angles)    1.27
          Max(Dihed)        0.00      Max(Improp)    0.00
          ---------------------------------------------------------------------

The optimization has not yet converged - more geometry cycles are needed


    ---------------------------------------------------------------------------
                         Redundant Internal Coordinates
                            (Angstroem and degrees)

        Definition                    Value    dE/dq     Step     New-Value
    ----------------------------------------------------------------------------
     1. B(H   1,O   0)                0.8000 -0.316108 -0.0000    0.8000 C 
     2. B(H   2,O   0)                0.9716  0.000910 -0.0015    0.9701   
     3. A(H   1,O   0,H   2)          104.64 -0.003559    1.27    105.90   
    ----------------------------------------------------------------------------

Geometry step timings:
Preparation and reading OPT file:      0.000 s ( 3.322 %)
Internal coordinates            :      0.000 s ( 4.196 %)
B/P matrices and projection     :      0.000 s (21.678 %)
Hessian update/contruction      :      0.000 s (25.524 %)
Making the step                 :      0.000 s ( 7.692 %)
Converting the step to Cartesian:      0.000 s ( 7.343 %)
Storing new data                :      0.000 s ( 5.245 %)
Checking convergence            :      0.000 s (10.315 %)
Final printing                  :      0.000 s (14.510 %)
Total time                      :      0.001 s

Time for energy+gradient        :      1.638 s
Time for complete geometry iter :      1.832 s

         *************************************************************
         *                GEOMETRY OPTIMIZATION CYCLE   3            *
         *************************************************************
---------------------------------
CARTESIAN COORDINATES (ANGSTROEM)
---------------------------------
  O     -3.136653   -0.586600   -0.012428
  H     -2.338591   -0.626431    0.026447
  H     -3.466776   -1.239389    0.624801

----------------------------
CARTESIAN COORDINATES (A.U.)
----------------------------
  NO LB      ZA    FRAG     MASS         X           Y           Z
   0 O     8.0000    0    15.999   -5.927415   -1.108513   -0.023485
   1 H     1.0000    0     1.008   -4.419297   -1.183783    0.049978
   2 H     1.0000    0     1.008   -6.551257   -2.342106    1.180702

--------------------------------
INTERNAL COORDINATES (ANGSTROEM)
--------------------------------
 O      0   0   0     0.000000000000     0.00000000     0.00000000
 H      1   0   0     0.800000001518     0.00000000     0.00000000
 H      1   2   0     0.970141854742   105.90472266     0.00000000

---------------------------
INTERNAL COORDINATES (A.U.)
---------------------------
 O      0   0   0     0.000000000000     0.00000000     0.00000000
 H      1   0   0     1.511780910006     0.00000000     0.00000000
 H      1   2   0     1.833302416516   105.90472266     0.00000000



           ************************************************************
           *        Program running with 8 parallel MPI-processes     *
           *              working on a common directory               *
           ************************************************************
------------------------------------------------------------------------------
                   ___                                                        
                  /   \      - P O W E R E D   B Y -                         
                 /     \                                                     
                 |  |  |   _    _      __       _____    __    __             
                 |  |  |  | |  | |    /  \     |  _  \  |  |  /  |          
                  \  \/   | |  | |   /    \    | | | |  |  | /  /          
                 / \  \   | |__| |  /  /\  \   | |_| |  |  |/  /          
                |  |  |   |  __  | /  /__\  \  |    /   |      \           
                |  |  |   | |  | | |   __   |  |    \   |  |\   \          
                \     /   | |  | | |  |  |  |  | |\  \  |  | \   \       
                 \___/    |_|  |_| |__|  |__|  |_| \__\ |__|  \__/        
                                                                              
                      - O R C A' S   B I G   F R I E N D -                    
                                      &                                       
                       - I N T E G R A L  F E E D E R -                       
                                                                              
 v1 FN, 2020, v2 2021, v3 2022-2024                                           
------------------------------------------------------------------------------


----------------------
SHARK INTEGRAL PACKAGE
----------------------

Number of atoms                             ...      3
Number of basis functions                   ...     24
Number of shells                            ...     12
Maximum angular momentum                    ...      2
Integral batch strategy                     ... SHARK/LIBINT Hybrid
RI-J (if used) integral strategy            ... SPLIT-RIJ (Revised 2003 algorithm where possible)
Printlevel                                  ...      1
Contraction scheme used                     ... SEGMENTED contraction
Prescreening option                         ... SCHWARTZ
   Thresh                                   ... 2.500e-11
   Tcut                                     ... 2.500e-12
   Tpresel                                  ... 2.500e-12 
Coulomb Range Separation                    ... NOT USED
Exchange Range Separation                   ... NOT USED
Multipole approximations                    ... NOT USED
Finite Nucleus Model                        ... NOT USED
CABS basis                                  ... NOT available
Auxiliary Coulomb fitting basis             ... AVAILABLE
   # of basis functions in Aux-J            ...     71
   # of shells in Aux-J                     ...     25
   Maximum angular momentum in Aux-J        ...      4
Auxiliary J/K fitting basis                 ... NOT available
Auxiliary Correlation fitting basis         ... NOT available
Auxiliary 'external' fitting basis          ... NOT available

Checking pre-screening integrals            ... done (  0.0 sec) Dimension = 12
   => SHARK Basis and OBASIS are compatible. Storing Pre-screening
Shell pair information
Shell pair cut-off parameter TPreSel        ...   2.5e-12
Total number of shell pairs                 ...        78
Shell pairs after pre-screening             ...        78
Total number of primitive shell pairs       ...       272
Primitive shell pairs kept                  ...       266
          la=0 lb=0:     28 shell pairs
          la=1 lb=0:     28 shell pairs
          la=1 lb=1:     10 shell pairs
          la=2 lb=0:      7 shell pairs
          la=2 lb=1:      4 shell pairs
          la=2 lb=2:      1 shell pairs

Checking whether 4 symmetric matrices of dimension 24 fit in memory
:Max Core in MB      =    750.00
 MB in use           =      3.23
 MB left             =    746.77
 MB needed           =      0.01
 Data fit in memory  = YES
Calculating RI/J V-Matrix + Cholesky decomp.... done (  0.0 sec)
Calculating Nuclear repulsion               ... done (  0.0 sec) ENN=     10.029056041621 Eh

Diagonalization of the overlap matrix:
Smallest eigenvalue                        ... 3.030e-02
Time for diagonalization                   ...    0.000 sec
Threshold for overlap eigenvalues          ... 1.000e-07
Number of eigenvalues below threshold      ... 0
Time for construction of square roots      ...    0.001 sec
Total time needed                          ...    0.003 sec

-------------------
DFT GRID GENERATION
-------------------

General Integration Accuracy     IntAcc      ... 4.388
Radial Grid Type                 RadialGrid  ... OptM3 with GC (2021)
Angular Grid (max. ang.)         AngularGrid ... 4 (Lebedev-302)
Angular grid pruning method      GridPruning ... 4 (adaptive)
Weight generation scheme         WeightScheme... mBecke (2022)
Basis function cutoff            BFCut       ... 1.0000e-11
Integration weight cutoff        WCut        ... 1.0000e-14
Partially contracted basis set               ... off
Rotationally invariant grid construction     ... off
Angular grids for H and He will be reduced by one unit

Total number of grid points                  ...    12731
Total number of batches                      ...      201
Average number of points per batch           ...       63
Average number of grid points per atom       ...     4244
Grids setup in   0.1 sec
Initializing property integral containers    ... done (  0.0 sec)

SHARK setup successfully completed in   0.2 seconds

Maximum memory used throughout the entire STARTUP-calculation: 8.8 MB


           ************************************************************
           *        Program running with 8 parallel MPI-processes     *
           *              working on a common directory               *
           ************************************************************
Occupation numbers will be reassigned to an Aufbau configuration
             **** ENERGY FILE WAS UPDATED (input.en.tmp) ****
Finished Guess after   0.1 sec
Maximum memory used throughout the entire GUESS-calculation: 5.4 MB


           ************************************************************
           *        Program running with 8 parallel MPI-processes     *
           *              working on a common directory               *
           ************************************************************
----------------------------------------D-I-I-S--------------------------------------------
Iteration    Energy (Eh)           Delta-E    RMSDP     MaxDP     DIISErr   Damp  Time(sec)
-------------------------------------------------------------------------------------------
               ***  Starting incremental Fock matrix formation  ***
                              *** Initializing SOSCF ***
---------------------------------------S-O-S-C-F--------------------------------------
Iteration    Energy (Eh)           Delta-E    RMSDP     MaxDP     MaxGrad    Time(sec)
--------------------------------------------------------------------------------------
    1    -76.2306402135631203     0.00e+00  2.59e-03  5.02e-03  3.20e-04     0.1
               *** Restarting incremental Fock matrix formation ***
    2    -76.2306726637966108    -3.25e-05  4.98e-04  8.48e-04  4.43e-04     0.1
    3    -76.2306734588146924    -7.95e-07  2.09e-04  4.57e-04  2.23e-04     0.2
    4    -76.2306734797456471    -2.09e-08  1.36e-04  3.01e-04  1.51e-04     0.1
    5    -76.2306735952181782    -1.15e-07  9.49e-06  1.75e-05  7.18e-06     0.1
    6    -76.2306735955042001    -2.86e-10  2.80e-06  5.56e-06  3.35e-06     0.1
                 **** Energy Check signals convergence ****

               *****************************************************
               *                     SUCCESS                       *
               *           SCF CONVERGED AFTER   6 CYCLES          *
               *****************************************************

             **** ENERGY FILE WAS UPDATED (input.en.tmp) ****

----------------
TOTAL SCF ENERGY
----------------

Total Energy       :        -76.23067359557935 Eh           -2074.34209 eV

Components:
Nuclear Repulsion  :         10.02905604162106 Eh             272.90449 eV
Electronic Energy  :        -86.25972963720041 Eh           -2347.24658 eV
One Electron Energy:       -124.48934802227713 Eh           -3387.52738 eV
Two Electron Energy:         38.22961838507672 Eh            1040.28080 eV

Virial components:
Potential Energy   :       -152.37865554920640 Eh           -4146.43402 eV
Kinetic Energy     :         76.14798195362705 Eh            2072.09193 eV
Virial Ratio       :          2.00108593346574

DFT components:
N(Alpha)           :        4.999999476227 electrons
N(Beta)            :        4.999999476227 electrons
N(Total)           :        9.999998952454 electrons
E(X)               :       -9.015034972872 Eh       
E(C)               :       -0.334194895934 Eh       
E(XC)              :       -9.349229868806 Eh       

---------------
SCF CONVERGENCE
---------------

  Last Energy change         ...    2.8602e-10  Tolerance :   1.0000e-08
  Last MAX-Density change    ...    5.5618e-06  Tolerance :   1.0000e-07
  Last RMS-Density change    ...    2.7963e-06  Tolerance :   5.0000e-09
  Last DIIS Error            ...    2.9321e-03  Tolerance :   5.0000e-07
  Last Orbital Gradient      ...    3.3485e-06  Tolerance :   1.0000e-05
  Last Orbital Rotation      ...    2.2842e-06  Tolerance :   1.0000e-05


Total SCF time: 0 days 0 hours 0 min 0 sec 
Finished LeanSCF after   0.8 sec

Maximum memory used throughout the entire LEANSCF-calculation: 3.9 MB

-------------------------   --------------------
FINAL SINGLE POINT ENERGY       -76.230673595579
-------------------------   --------------------



           ************************************************************
           *        Program running with 8 parallel MPI-processes     *
           *              working on a common directory               *
           ************************************************************
------------------------------------------------------------------------------
                         ORCA SCF GRADIENT CALCULATION
------------------------------------------------------------------------------

Nuc. rep. gradient        (SHARK) ... done (  0.0 sec)
HCore & Overlap gradient  (SHARK) ... done (  0.0 sec)
Split-RIJ-J gradient      (SHARK) ... done (  0.1 sec)
XC gradient                       ... done (  0.0 sec)

------------------
CARTESIAN GRADIENT
------------------

   1   O   :    0.314710675   -0.015326702    0.014959324
   2   H   :   -0.314661372    0.015616851   -0.015241831
   3   H   :   -0.000049303   -0.000290149    0.000282507

Difference to translation invariance:
           :   -0.0000000000   -0.0000000000   -0.0000000000

Difference to rotation invariance:
           :    0.0000008805   -0.0000125628   -0.0000121377

Norm of the Cartesian gradient     ...    0.4460825514
RMS gradient                       ...    0.1486941838
MAX gradient                       ...    0.3147106748

-------
TIMINGS
-------

Total SCF gradient time     ....        0.140 sec

Densities                   ....       0.000 sec  (  0.3%)
One electron gradient       ....       0.005 sec  (  3.6%)
RI-J Coulomb gradient       ....       0.102 sec  ( 72.9%)
XC gradient                 ....       0.032 sec  ( 22.9%)

Maximum memory used throughout the entire SCFGRAD-calculation: 5.4 MB
------------------------------------------------------------------------------
                         ORCA GEOMETRY RELAXATION STEP
------------------------------------------------------------------------------

Reading the OPT-File                    .... done
Getting information on internals        .... done
Copying old internal coords+grads       .... done
Making the new internal coordinates     .... (2022 redundants) done
Validating the new internal coordinates .... (2022 redundants) done
Calculating the B-matrix                .... done
Calculating the G,G- and P matrices     .... done
Transforming gradient to internals      .... done
Projecting the internal gradient        .... done
Number of atoms                         ....   3
Number of internal coordinates          ....   3
Current Energy                          ....   -76.230673596 Eh
Current gradient norm                   ....     0.446082551 Eh/bohr
Maximum allowed component of the step   ....  0.300
Current trust radius                    ....  0.300
Updating the Hessian (BFGS)             .... done
Forming the augmented Hessian           .... done
Diagonalizing the augmented Hessian     .... done
Last element of RFO vector              ....  0.999998723
Lowest eigenvalues of augmented Hessian:
 -0.000000571  0.153214742  0.577020871
Length of the computed step             ....  0.001598265
The final length of the internal step   ....  0.001598265
Converting the step to Cartesian space:
 Initial RMS(Int)=    0.0009227589
Transforming coordinates:
 Iter   0:  RMS(Cart)=    0.0003729687 RMS(Int)=    0.0009228028
Imposing constraints:
 Iter   0:  RMS(Cart)=    0.0000000000 RMS(Int)=    0.0000000000
CONVERGED
done
Storing new coordinates                 .... done
The predicted energy change is          ....    -0.000000286
Previously predicted energy change      ....    -0.000040678
Actually observed energy change         ....    -0.000042999
Ratio of predicted to observed change   ....     1.057046822
New trust radius                        ....     0.450000000

                                .--------------------.
          ----------------------|Geometry convergence|-------------------------
          Item                value                   Tolerance       Converged
          ---------------------------------------------------------------------
          Energy change      -0.0000429987            0.0000050000      NO
[...]
   Quad. conv. algorithm                .... NR
   White noise on init. David. guess    .... on
   Maximum white noise                  ....   0.010
   Pseudo random numbers                .... off
   Inactive MOs                         .... canonical
   Orbital update algorithm             .... Taylor
   Preconditioner                       .... Diag
   Full preconditioner red. dimension   ....   250
 SOSCF                 CNVSOSCF           .... on
   Start iteration     SOSCFMaxIt         ....   150
   Startup grad/error  SOSCFStart         ....  0.003300
   Hessian update      SOSCFHessUp        .... L-BFGS
   Autom. constraints  SOSCFAutoConstrain .... off
 Level Shifting         CNVShift        .... on
   Level shift para.    LevelShift      ....    0.2500
   Turn off err/grad.   ShiftErr        ....    0.0010
 Zerner damping         CNVZerner       .... off
 Static damping         CNVDamp         .... on
   Fraction old density DampFac         ....    0.7000
   Max. Damping (<1)    DampMax         ....    0.9800
   Min. Damping (>=0)   DampMin         ....    0.0000
   Turn off err/grad.   DampErr         ....    0.1000

SCF Procedure:
 Maximum # iterations   MaxIter         ....   125
 SCF integral mode      SCFMode         .... Direct
   Integral package                     .... SHARK and LIBINT hybrid scheme
 Reset frequency        DirectResetFreq ....    20
 Integral Threshold     Thresh          ....  2.500e-11 Eh
 Primitive CutOff       TCut            ....  2.500e-12 Eh

Convergence Tolerance:
 Convergence Check Mode ConvCheckMode   .... Total+1el-Energy
 Convergence forced     ConvForced      .... 0
 Energy Change          TolE            ....  1.000e-08 Eh
 1-El. energy change                    ....  1.000e-05 Eh
 Orbital Gradient       TolG            ....  1.000e-05
 Orbital Rotation angle TolX            ....  1.000e-05
 DIIS Error             TolErr          ....  5.000e-07

---------------------
INITIAL GUESS: MOREAD
---------------------
Guess MOs are being read from file: input.gbw
Input Geometry matches current geometry (good)
Input basis set matches current basis set (good)
Occupation numbers will be reassigned to an Aufbau configuration
MOs were renormalized
MOs were reorthogonalized (Cholesky)
                      ------------------
                      INITIAL GUESS DONE (   0.0 sec)
                      ------------------
             **** ENERGY FILE WAS UPDATED (input.en.tmp) ****
Finished Guess after   0.2 sec
Maximum memory used throughout the entire GUESS-calculation: 5.4 MB


           ************************************************************
           *        Program running with 8 parallel MPI-processes     *
           *              working on a common directory               *
           ************************************************************

-------------------------------------------------------------------------------------------
                                      ORCA LEAN-SCF
                              memory conserving SCF solver
-------------------------------------------------------------------------------------------

----------------------------------------D-I-I-S--------------------------------------------
Iteration    Energy (Eh)           Delta-E    RMSDP     MaxDP     DIISErr   Damp  Time(sec)
-------------------------------------------------------------------------------------------
               ***  Starting incremental Fock matrix formation  ***
                              *** Initializing SOSCF ***
---------------------------------------S-O-S-C-F--------------------------------------
Iteration    Energy (Eh)           Delta-E    RMSDP     MaxDP     MaxGrad    Time(sec)
--------------------------------------------------------------------------------------
    1    -76.1839221367342390     0.00e+00  1.82e-05  4.51e-05  3.03e-06     0.1
               *** Restarting incremental Fock matrix formation ***
    2    -76.1839221390938519    -2.36e-09  1.13e-05  3.16e-05  6.49e-06     0.2
    3    -76.1839221381129761     9.81e-10  8.68e-06  2.32e-05  1.70e-05     0.2
                 **** Energy Check signals convergence ****

               *****************************************************
               *                     SUCCESS                       *
               *           SCF CONVERGED AFTER   3 CYCLES          *
               *****************************************************

             **** ENERGY FILE WAS UPDATED (input.en.tmp) ****

----------------
TOTAL SCF ENERGY
----------------

Total Energy       :        -76.18392213934092 Eh           -2073.06991 eV

Components:
Nuclear Repulsion  :          7.41338341140398 Eh             201.72842 eV
Electronic Energy  :        -83.59730555074489 Eh           -2274.79833 eV
One Electron Energy:       -119.62673232521067 Eh           -3255.20888 eV
Two Electron Energy:         36.02942677446578 Eh             980.41055 eV

Virial components:
Potential Energy   :       -151.64073196948914 Eh           -4126.35410 eV
Kinetic Energy     :         75.45680983014823 Eh            2053.28418 eV
Virial Ratio       :          2.00963613901554

DFT components:
N(Alpha)           :        4.999999875703 electrons
N(Beta)            :        4.999999875703 electrons
N(Total)           :        9.999999751406 electrons
E(X)               :       -8.777938124130 Eh       
E(C)               :       -0.318123216906 Eh       
E(XC)              :       -9.096061341036 Eh       

---------------
SCF CONVERGENCE
---------------

  Last Energy change         ...   -9.8088e-10  Tolerance :   1.0000e-08
  Last MAX-Density change    ...    2.3157e-05  Tolerance :   1.0000e-07
  Last RMS-Density change    ...    8.6768e-06  Tolerance :   5.0000e-09
  Last DIIS Error            ...    2.8593e-05  Tolerance :   5.0000e-07
  Last Orbital Gradient      ...    1.6973e-05  Tolerance :   1.0000e-05
  Last Orbital Rotation      ...    2.0146e-05  Tolerance :   1.0000e-05


----------------
ORBITAL ENERGIES
----------------

  NO   OCC          E(Eh)            E(eV) 
   0   2.0000     -18.770513      -510.7716 
   1   2.0000      -0.843733       -22.9591 
   2   2.0000      -0.379744       -10.3334 
   3   2.0000      -0.318816        -8.6754 
   4   2.0000      -0.223134        -6.0718 
   5   0.0000      -0.107659        -2.9295 
   6   0.0000       0.060391         1.6433 
   7   0.0000       0.398670        10.8484 
   8   0.0000       0.541894        14.7457 
   9   0.0000       0.854240        23.2451 
  10   0.0000       0.854528        23.2529 
  11   0.0000       0.963400        26.2155 
  12   0.0000       1.032366        28.0921 
  13   0.0000       1.282717        34.9045 
  14   0.0000       1.315083        35.7852 
  15   0.0000       1.428989        38.8848 
*Only the first 10 virtual orbitals were printed.

                    ********************************
                    * MULLIKEN POPULATION ANALYSIS *
                    ********************************

-----------------------
MULLIKEN ATOMIC CHARGES
-----------------------
   0 O :   -0.341294
   1 H :    0.176565
   2 H :    0.164729
Sum of atomic charges:    0.0000000

--------------------------------
MULLIKEN REDUCED ORBITAL CHARGES
--------------------------------
  0 O s       :     3.856934  s :     3.856934
      pz      :     1.652845  p :     4.477289
      px      :     1.187557
      py      :     1.636886
      dz2     :     0.001133  d :     0.007071
      dxz     :     0.000295
      dyz     :     0.003396
      dx2y2   :     0.001942
      dxy     :     0.000306

  1 H s       :     0.808777  s :     0.808777
      pz      :     0.002561  p :     0.014658
      px      :     0.009555
      py      :     0.002543

  2 H s       :     0.768123  s :     0.768123
      pz      :     0.026429  p :     0.067148
      px      :     0.014001
      py      :     0.026719



                     *******************************
                     * LOEWDIN POPULATION ANALYSIS *
                     *******************************

----------------------
LOEWDIN ATOMIC CHARGES
----------------------
   0 O :   -0.236838
   1 H :    0.174011
   2 H :    0.062828

-------------------------------
LOEWDIN REDUCED ORBITAL CHARGES
-------------------------------
  0 O s       :     3.667160  s :     3.667160
      pz      :     1.687929  p :     4.557545
      px      :     1.194279
      py      :     1.675336
      dz2     :     0.001171  d :     0.012134
      dxz     :     0.000188
      dyz     :     0.007291
      dx2y2   :     0.003290
      dxy     :     0.000194

  1 H s       :     0.798777  s :     0.798777
      pz      :     0.004035  p :     0.027212
      px      :     0.019196
      py      :     0.003982

  2 H s       :     0.760800  s :     0.760800
      pz      :     0.072733  p :     0.176372
      px      :     0.029877
      py      :     0.073763



                      *****************************
                      * MAYER POPULATION ANALYSIS *
                      *****************************

  NA   - Mulliken gross atomic population
  ZA   - Total nuclear charge
  QA   - Mulliken gross atomic charge
  VA   - Mayer's total valence
  BVA  - Mayer's bonded valence
  FA   - Mayer's free valence

  ATOM       NA         ZA         QA         VA         BVA        FA
  0 O      8.3413     8.0000    -0.3413     1.9592     1.9592     0.0000
  1 H      0.8234     1.0000     0.1766     0.9696     0.9696     0.0000
  2 H      0.8353     1.0000     0.1647     0.9966     0.9966    -0.0000

  Mayer bond orders larger than 0.100000
B(  0-O ,  1-H ) :   0.9661 B(  0-O ,  2-H ) :   0.9931 

-------
TIMINGS
-------

Total SCF time: 0 days 0 hours 0 min 1 sec 

Total time                  ....       1.515 sec
Sum of individual times     ....       1.353 sec  ( 89.3%)

SCF preparation             ....       0.229 sec  ( 15.1%)
Fock matrix formation       ....       0.422 sec  ( 27.9%)
  Startup                   ....       0.005 sec  (  1.1% of F)
  Split-RI-J                ....       0.013 sec  (  3.1% of F)
  XC integration            ....       0.343 sec  ( 81.2% of F)
    Basis function eval.    ....       0.011 sec  (  3.1% of XC)
    Density eval.           ....       0.004 sec  (  1.2% of XC)
    XC-Functional eval.     ....       0.008 sec  (  2.2% of XC)
    XC-Potential eval.      ....       0.003 sec  (  0.9% of XC)
Diagonalization             ....       0.000 sec  (  0.0%)
Density matrix formation    ....       0.009 sec  (  0.6%)
Total Energy calculation    ....       0.004 sec  (  0.2%)
Population analysis         ....       0.620 sec  ( 40.9%)
Orbital Transformation      ....       0.019 sec  (  1.2%)
Orbital Orthonormalization  ....       0.000 sec  (  0.0%)
DIIS solution               ....       0.009 sec  (  0.6%)
SOSCF solution              ....       0.042 sec  (  2.8%)
Finished LeanSCF after   1.9 sec

Maximum memory used throughout the entire LEANSCF-calculation: 7.6 MB

-------------------------   --------------------
FINAL SINGLE POINT ENERGY       -76.183922139341
-------------------------   --------------------

                                *** OPTIMIZATION RUN DONE ***


Storing optimized geometry in input.010.xyz ... done
Storing optimized geometry and energy in input.xyzall ... done
Storing actual gbw-file in input.010.gbw ... done


           ************************************************************
           *        Program running with 8 parallel MPI-processes     *
           *              working on a common directory               *
           ************************************************************

------------------------------------------------------------------------------
                              ORCA PROPERTY CALCULATIONS
------------------------------------------------------------------------------

GBWName                                 ... input.gbw
Number of atoms                         ...      3
Number of basis functions               ...     24
Max core memory                         ...    750 MB

Electric properties:
Dipole moment                           ... YES
Quadrupole moment                       ...  NO
Static polarizability (Dipole/Dipole)   ...  NO
Static polarizability (Dipole/Quad.)    ...  NO
Static polarizability (Quad./Quad.)     ...  NO
Static polarizability (Velocity)        ...  NO
Static hyperpolarizability              ...  NO

Atomic electric properties:
Dipole moment                           ...  NO
Quadrupole moment                       ...  NO
Static polarizability                   ...  NO

Choice of electric origin               ... Center of mass
Position of electric origin             ...    -6.375462    -1.159646     0.026432

General magnetic properties:
Magnetizability                         ...  NO

EPR properties:
g-Tensor (aka g-matrix)                 ...  NO
Zero-Field splitting spin-orbit         ...  NO
Zero-field splitting spin-spin          ...  NO
Hyperfine couplings                     ...  NO (   0 nuclei)
Quadrupole couplings                    ...  NO (   0 nuclei)
Contact density                         ...  NO (   0 nuclei)

NMR properties:
Chemical shifts                         ...  NO (   0 nuclei)
Spin-rotation constants                 ...  NO (   0 nuclei)
Spin-spin couplings                     ...  NO (   0 nuclei,    0 pairs)

Choice of magnetic origin               ... GIAO
Position of magnetic origin             ...     0.000000     0.000000     0.000000

Properties with geometric perturbations:
SCF Hessian                             ...  NO
IR spectrum                             ...  NO
VCD spectrum                            ...  NO
X-ray spectroscopy properties:
SCF XES/XAS/RIXS spectra                ...  NO

SCF SOC stabilization energy            ...  NO
Diagonal Born-Oppenheimer correction    ...  NO

-------------
DIPOLE MOMENT
-------------

Method             : SCF
Type of density    : Electron Density
Multiplicity       :   1
Irrep              :   0
Energy             :   -76.1839221393409218 Eh
Basis              : AO
                                X                 Y                 Z
Electronic contribution:     -0.650212407       0.163321435      -0.159422157
Nuclear contribution   :      1.179540241      -0.611608135       0.597017202
                        -----------------------------------------
Total Dipole Moment    :      0.529327834      -0.448286700       0.437595045
                        -----------------------------------------
Magnitude (a.u.)       :      0.820145320
Magnitude (Debye)      :      2.084643733



--------------------
Rotational spectrum 
--------------------
 
Rotational constants in cm-1:            18.634244             7.781830             5.489405 
Rotational constants in MHz :        558640.581428        233293.407985        164568.217582 

Dipole components along the rotational axes: 
x,y,z [a.u.] :     0.481514    -0.663914     0.000000 
x,y,z [Debye]:     1.223913    -1.687536     0.000001 

 

Dipole moment calculation done in   0.1 sec 

Maximum memory used throughout the entire PROP-calculation: 5.2 MB
                   **** RELAXED SURFACE SCAN DONE ***

                    SUMMARY OF THE CALCULATED SURFACE

----------------------------
RELAXED SURFACE SCAN RESULTS
----------------------------

Column   1: NONAME

The Calculated Surface using the 'Actual Energy'
   0.80000000 -76.23067389
   0.87777778 -76.26216326
   0.95555556 -76.27234942
   1.03333333 -76.27002128
   1.11111111 -76.26050938
   1.18888889 -76.24706330
   1.26666667 -76.23167352
   1.34444444 -76.21556679
   1.42222222 -76.19949798
   1.50000000 -76.18392214

The Calculated Surface using the SCF energy
   0.80000000 -76.23067389
   0.87777778 -76.26216326
   0.95555556 -76.27234942
   1.03333333 -76.27002128
   1.11111111 -76.26050938
   1.18888889 -76.24706330
   1.26666667 -76.23167352
   1.34444444 -76.21556679
   1.42222222 -76.19949798
   1.50000000 -76.18392214


--------------------------------
SUGGESTED CITATIONS FOR THIS RUN
--------------------------------

Below you find a list of papers that are relevant to this ORCA run
We neither can nor want to force you to cite these papers, but we appreciate if you do
You receive ORCA, which is the product of decades of hard work by many enthusiastic individuals, for free
The only thing we kindly ask in return is that you cite our papers,
We deeply appreciate it, if you show your appreciation for ORCA by not just citing the generic ORCA reference.

Please note that relegating all ORCA citations to the supporting information does *not* help us.
SI sections are not indexed - citations you put there will not count into any citation statistics
But we need these citations in order to attract the funding resources that allow us to do what we are doing

Therefore, if you are a happy ORCA user, please consider citing a few of the papers listed below in the main body of your paper

In addition to the list printed below, the program has created the file input.bibtex that contains the list in bibtex format
You can import this file easily into all common literature databanks and citation aid programs


List of essential papers. We consider these as the minimum necessary citations

  1. Neese, F.
     Software update: the ORCA program system, version 6.0
     WIRES Comput. Molec. Sci. 2025 15(1), e70019
     doi.org/10.1002/wcms.7019

List of papers to cite with high priority. The work reported in these papers was absolutely
necessary for this run to complete.
Our perspective: the developers of density functionals and basis sets usually get cited in chemistry papers
Good! But without the algorithms to do something with them, the functionals or basis sets would not do anything.
Hence, in our opinion, the algorithm design and method developments papers are equally worthy of getting cited

  1. Neese, F.
     An improvement of the resolution of the identity approximation for the formation of the Coulomb matrix
     J. Comp. Chem. 2003 24(14), 1740-1747
     doi.org/10.1002/jcc.10318
  2. Neese, F.
     The SHARK Integral Generation and Digestion System
     J. Comp. Chem. 2022 44(3), 381
     doi.org/10.1002/jcc.26942

List of suggested additional citations. These are papers that are important in the 'surrounding' of 
of this run, or papers that preceded the highly important papers. If you like your results we are grateful for a citation.

  1. Neese, F.
     The ORCA program system
     WIRES Comput. Molec. Sci. 2012 2(1), 73-78
     doi.org/10.1002/wcms.81
  2. Neese, F.
     Software update: the ORCA program system, version 4.0
     WIRES Comput. Molec. Sci. 2018 8(1), 1-6
     doi.org/10.1002/wcms.1327
  3. Neese, F.; Wennmohs, F.; Becker, U.; Riplinger, C.
     The ORCA quantum chemistry program package
     J. Chem. Phys. 2020 152(22), 224108
     doi.org/10.1063/5.0004608
  4. Neese, F.
     Software update: The ORCA program system—Version 5.0
     WIRES Comput. Molec. Sci. 2022 12(1), e1606
     doi.org/10.1002/wcms.1606

List of optional additional citations

  1. Neese, F.
     Approximate second-order SCF convergence for spin unrestricted wavefunctions
     Chem. Phys. Lett. 2000 325(1-3), 93-98
     doi.org/10.1016/s0009-2614(00)00662-x

Timings for individual modules:

Sum of individual times          ...      167.825 sec (=   2.797 min)
Startup calculation              ...       23.688 sec (=   0.395 min)  14.1 %
SCF iterations                   ...      115.586 sec (=   1.926 min)  68.9 %
Property calculations            ...        3.493 sec (=   0.058 min)   2.1 %
SCF Gradient evaluation          ...       24.986 sec (=   0.416 min)  14.9 %
Geometry relaxation              ...        0.072 sec (=   0.001 min)   0.0 %
                             ****ORCA TERMINATED NORMALLY****
TOTAL RUN TIME: 0 days 0 hours 2 minutes 59 seconds 382 msec
