6
Coordinates from ORCA-job SN2_scan_ts Relaxed Surface Scan Step 1 E -3073.194353552187
  C      -4.097581      1.257851     -0.027564
  Br     -2.058041      1.178588     -0.302977
  H      -4.327148      2.136879      0.593219
  H      -4.413181      0.332431      0.477196
  H      -4.575032      1.344169     -1.015162
  Cl     -7.068167      1.376911      0.374237
>
6
Coordinates from ORCA-job SN2_scan_ts Relaxed Surface Scan Step 2 E -3073.194822393205
  C      -4.115833      1.258454     -0.025142
  Br     -2.062484      1.179058     -0.302271
  H      -4.336405      2.138836      0.595622
  H      -4.421919      0.330589      0.479305
  H      -4.584426      1.344492     -1.016148
  Cl     -7.018083      1.375402      0.367583
>
6
Coordinates from ORCA-job SN2_scan_ts Relaxed Surface Scan Step 3 E -3073.195100478154
  C      -4.136063      1.259235     -0.022423
  Br     -2.065181      1.179215     -0.301872
  H      -4.344551      2.141476      0.598292
  H      -4.430189      0.328363      0.481655
  H      -4.593156      1.344999     -1.017826
  Cl     -6.970011      1.373541      0.361123
>
6
Coordinates from ORCA-job SN2_scan_ts Relaxed Surface Scan Step 4 E -3073.195160162177
  C      -4.158961      1.260253     -0.019321
  Br     -2.065837      1.178998     -0.301811
  H      -4.351227      2.144984      0.601324
  H      -4.437490      0.325519      0.484305
  H      -4.600984      1.345708     -1.020446
  Cl     -6.924651      1.371368      0.354900
>
6
Coordinates from ORCA-job SN2_scan_ts Relaxed Surface Scan Step 5 E -3073.194986413183
  C      -4.187534      1.261518     -0.015449
  Br     -2.063074      1.178606     -0.302224
  H      -4.355111      2.149744      0.604904
  H      -4.442093      0.321128      0.487309
  H      -4.606371      1.346433     -1.025031
  Cl     -6.884967      1.369400      0.349441
>
6
Coordinates from ORCA-job SN2_scan_ts Relaxed Surface Scan Step 6 E -3073.194597247553
  C      -4.218287      1.262926     -0.011290
  Br     -2.058855      1.178043     -0.302819
  H      -4.357969      2.154607      0.608391
  H      -4.445788      0.316691      0.490224
  H      -4.610784      1.347194     -1.029855
  Cl     -6.847467      1.367368      0.344300
>
6
Coordinates from ORCA-job SN2_scan_ts Relaxed Surface Scan Step 7 E -3073.194061764581
  C      -4.258099      1.264696     -0.005832
  Br     -2.047450      1.177221     -0.304529
  H      -4.356759      2.160831      0.612428
  H      -4.445952      0.310553      0.493527
  H      -4.611824      1.347960     -1.036842
  Cl     -6.819066      1.365570      0.340200
>
6
Coordinates from ORCA-job SN2_scan_ts Relaxed Surface Scan Step 8 E -3073.193563775821
  C      -4.311873      1.266497      0.001640
  Br     -2.024472      1.176942     -0.308017
  H      -4.350472      2.167408      0.616619
  H      -4.440161      0.302238      0.496751
  H      -4.607581      1.348010     -1.045853
  Cl     -6.804592      1.365734      0.337809
>
6
Coordinates from ORCA-job SN2_scan_ts Relaxed Surface Scan Step 9 E -3073.193466207630
  C      -4.384850      1.269479      0.011424
  Br     -1.984341      1.175173     -0.313267
  H      -4.337103      2.173437      0.619050
  H      -4.427595      0.294929      0.498341
  H      -4.596011      1.348168     -1.055275
  Cl     -6.809250      1.365644      0.338678
>
6
Coordinates from ORCA-job SN2_scan_ts Relaxed Surface Scan Step 10 E -3073.194155361991
  C      -4.466401      1.272764      0.022369
  Br     -1.934073      1.173050     -0.319950
  H      -4.322105      2.174595      0.618085
  H      -4.412747      0.292610      0.497156
  H      -4.581343      1.347798     -1.059366
  Cl     -6.822482      1.366012      0.340656
