
                                 *****************
                                 * O   R   C   A *
                                 *****************

                                            #,                                       
                                            ###                                      
                                            ####                                     
                                            #####                                    
                                            ######                                   
                                           ########,                                 
                                     ,,################,,,,,                         
                               ,,#################################,,                 
                          ,,##########################################,,             
                       ,#########################################, ''#####,          
                    ,#############################################,,   '####,        
                  ,##################################################,,,,####,       
                ,###########''''           ''''###############################       
              ,#####''   ,,,,##########,,,,          '''####'''          '####       
            ,##' ,,,,###########################,,,                        '##       
           ' ,,###''''                  '''############,,,                           
         ,,##''                                '''############,,,,        ,,,,,,###''
      ,#''                                            '''#######################'''  
     '                                                          ''''####''''         
             ,#######,   #######,   ,#######,      ##                                
            ,#'     '#,  ##    ##  ,#'     '#,    #''#        ,####,   ,####,        
            ##       ##  ##   ,#'  ##            #'  '#       #'       #'  '#        
            ##       ##  #######   ##           ,######,      #####,   #    #        
            '#,     ,#'  ##    ##  '#,     ,#' ,#      #,     #,   #   #,  ,#        
             '#######'   ##     ##  '#######'  #'      '#     '####' # '####'        



                #########################################################
                #                        -***-                          #
                #          Department of theory and spectroscopy        #
                #                                                       #
                #                      Frank Neese                      #
                #                                                       #
                #     Directorship, Architecture, Infrastructure        #
                #                    SHARK, DRIVERS                     #
                #        Core code/Algorithms in most modules           #
                #                                                       #
                #        Max Planck Institute fuer Kohlenforschung      #
                #                Kaiser Wilhelm Platz 1                 #
                #                 D-45470 Muelheim/Ruhr                 #
                #                      Germany                          #
                #                                                       #
                #                  All rights reserved                  #
                #                        -***-                          #
                #########################################################


                         Program Version 6.0.1  -  RELEASE   -


 With contributions from (in alphabetic order):
[Max-Planck-Institut fuer Kohlenforschung]                               
  Daniel Aravena         : Magnetic Suceptibility                        
  Michael Atanasov       : Ab Initio Ligand Field Theory (pilot matlab implementation)
  Alexander A. Auer      : GIAO ZORA, VPT2 properties, NMR spectrum      
  Ute Becker             : All parallelization in ORCA, NUMFREQ, NUMCALC 
  Giovanni Bistoni       : ED, misc. LED, open-shell LED, HFLD           
  Martin Brehm           : Molecular dynamics                            
  Dmytro Bykov           : pre 5.0 version of the SCF Hessian            
  Marcos Casanova-Páez   : Triplet and SCS-CIS(D). UHF-(DLPNO)-IP/EA/STEOM-CCSD. UHF-CVS-IP/STEOM-CCSD   
  Vijay G. Chilkuri      : MRCI spin determinant printing, contributions to CSF-ICE 
  Pauline Colinet        : FMM embedding                                 
  Dipayan Datta          : RHF DLPNO-CCSD density                        
  Achintya Kumar Dutta   : EOM-CC, STEOM-CC                              
  Nicolas Foglia         : Exact transition moments, OPA infrastructure, MCD improvements    
  Dmitry Ganyushin       : Spin-Orbit,Spin-Spin,Magnetic field MRCI      
  Miquel Garcia-Rates    : C-PCM and meta-GGA Hessian, CCSD/C-PCM, Gaussian charge scheme 
  Tiago L. C. Gouveia    : GS-ROHF, GS-ROCIS                             
  Yang Guo               : DLPNO-NEVPT2, F12-NEVPT2, CIM, IAO-localization        
  Andreas Hansen         : Spin unrestricted coupled pair/coupled cluster methods 
  Ingolf Harden          : AUTO-CI MPn and infrastructure                
  Benjamin Helmich-Paris : MC-RPA, TRAH-(SCF,CASSCF), AVAS, COSX integrals, SCF dyn. polar. 
  Lee Huntington         : MR-EOM, pCC                                   
  Robert Izsak           : Overlap fitted RIJCOSX, COSX-SCS-MP3, EOM     
  Riya Kayal             : Wick's Theorem for AUTO-CI, AUTO-CI UHF-CCSDT 
  Emily Kempfer          : AUTO-CI, RHF CISDT and CCSDT                  
  Christian Kollmar      : KDIIS, OOCD, Brueckner-CCSD(T), CCSD density, CASPT2, CASPT2-K, improved NEVPT2 
  Axel Koslowski         : Symmetry handling                             
  Simone Kossmann        : meta-GGA functionals, TD-DFT gradient, OOMP2, (MP2 Hessian; deprecated post 5.0) 
  Lucas Lang             : DCDCAS                                        
  Marvin Lechner         : AUTO-CI (C++ implementation), FIC-MRCC        
  Spencer Leger          : CASSCF response                               
  Dagmar Lenk            : GEPOL surface, SMD, ORCA-2-JSON               
  Dimitrios Liakos       : Extrapolation schemes; Compound Job, initial MDCI parallelization 
  Dimitrios Manganas     : Further ROCIS development; embedding schemes. LFT, Crystal Embedding 
  Dimitrios Pantazis     : SARC Basis sets                               
  Anastasios Papadopoulos: AUTO-CI, single reference methods and gradients 
  Taras Petrenko         : pre 6.0 DFT Hessian and TD-DFT gradient, (ASA, deprecated), ECA, 1-Electron XAS/XES, NRVS 
  Peter Pinski           : DLPNO-MP2, DLPNO-MP2 Gradient                 
  Christoph Reimann      : Effective Core Potentials                     
  Marius Retegan         : Local ZFS, SOC                                
  Christoph Riplinger    : Optimizer, TS searches, QM/MM, DLPNO-CCSD(T), (RO)-DLPNO pert. Triples 
  Michael Roemelt        : Original ROCIS implementation                 
  Masaaki Saitow         : Open-shell DLPNO-CCSD energy and density      
  Barbara Sandhoefer     : DKH picture change effects                    
  Kantharuban Sivalingam : CASSCF convergence/infrastructure, NEVPT2 and variants, FIC-MRCI 
  Bernardo de Souza      : ESD, SOC TD-DFT                               
  Georgi L. Stoychev     : AutoAux, RI-MP2 NMR, DLPNO-MP2 response, X2C  
  Van Anh Tran           : RI-MP2 g-tensors                              
  Willem Van den Heuvel  : Paramagnetic NMR                              
  Zikuan Wang            : NOTCH, Electric field optimization            
  Frank Wennmohs         : Technical directorship and infrastructure     
  Hang Xu                : AUTO-CI-Response properties                   
                                                                         
[FACCTs GmbH]                                                            
  Markus Bursch, Miquel Garcia-Rates, Christoph Riplinger, Bernardo de Souza, Georgi L. Stoychev 
                                                                 
  APM, Basis sets (HGBS, AHGBS, def-TZVP (Ac-Lr), def2-XVPD (La-Lu)), CI-OPT, improved COSX, DLPNO-Multilevel,           
  DOCKER, DRACO, updates on ESD, GOAT, IRC, LR-CPCM, MBIS, meta-GGA TD-DFT gradient, ML-optimized integration grids, 
  MM, NACMEs, nearIR, NEB, NEB-TS, NL-DFT gradient (VV10), 2- and 3-layer-ONIOM, interface openCOSMO-RS, QMMM,   
  Crystal-QMMM, SF, symmetry and pop. for TD-DFT, r2SCAN hybrids, SOLVATOR                                   
                                                                         
[Other institutions]                                                     
  V. Asgeirsson          : NEB                                           
  Christoph Bannwarth    : sTDA-DFT, sTD-DFT, PBEh-3c, B97-3c, D3        
  Sebastian Ehlert       : rSCAN, r2SCAN, r2SCAN-3c, D4, dhf basis sets  
  Marvin Friede          : D4 for Fr, Ra, Ac-Lr                          
  Lars Goerigk           : TD-DFT with DH, B97 family of functionals     
  Stefan Grimme          : VdW corrections, initial TS optimization, DFT functionals, gCP, sTDA/sTD-DF 
  Waldemar Hujo          : DFT-NL                                        
  H. Jonsson             : NEB                                           
  Holger Kruse           : gCP                                           
  Marcel Mueller         : wB97X-3c, vDZP basis set                      
  Hagen Neugebauer       : wr2SCAN                                       
  Tobias Risthaus        : range-separated hybrid DFT                    
  Lukas Wittmann         : regularized MP2, r2SCAN double-hybrids, wr2SCAN        
                                                                         
We gratefully acknowledge several colleagues who have allowed us to      
interface, adapt or use parts of their codes:                            
  Ed Valeev, F. Pavosevic, A. Kumar             : LibInt (2-el integral package), F12 methods 
  Garnet Chan, S. Sharma, J. Yang, R. Olivares  : DMRG                   
  Ulf Ekstrom                                   : XCFun DFT Library      
  Mihaly Kallay                                 : mrcc  (arbitrary order and MRCC methods)
  Frank Weinhold                                : gennbo (NPA and NBO analysis)           
  Simon Mueller                                 : openCOSMO-RS                            
  Christopher J. Cramer and Donald G. Truhlar   : smd solvation model                     
  S Lehtola, MJT Oliveira, MAL Marques          : LibXC Library                           
  Liviu Ungur et al                             : ANISO software                          


 Your calculation uses the libint2 library for the computation of 2-el integrals
 For citations please refer to: http://libint.valeyev.net

 Your ORCA version has been built with support for libXC version: 6.2.2
 For citations please refer to: https://libxc.gitlab.io

 This ORCA versions uses:
   CBLAS   interface :  Fast vector & matrix operations
   LAPACKE interface :  Fast linear algebra routines
   SCALAPACK package :  Parallel linear algebra routines
   Shared memory     :  Shared parallel matrices
   BLAS/LAPACK       :  OpenBLAS 0.3.27  USE64BITINT DYNAMIC_ARCH NO_AFFINITY Haswell SINGLE_THREADED
        Core in use  :  Haswell
   Copyright (c) 2011-2014, The OpenBLAS Project


NOTE: MaxCore=750 MB was set to SCF,MP2,MDCI,CIPSI,MRCI and CIS
      => If you want to overwrite this, your respective input block should be placed after the MaxCore statement
================================================================================

----- Orbital basis set information -----
Your calculation utilizes the basis: def2-SVP
   F. Weigend and R. Ahlrichs, Phys. Chem. Chem. Phys. 7, 3297 (2005).

----- AuxJ basis set information -----
Your calculation utilizes the auxiliary basis: def2/J
   F. Weigend, Phys. Chem. Chem. Phys. 8, 1057 (2006).

================================================================================
                                        WARNINGS
                       Please study these warnings very carefully!
================================================================================



WARNING: Found flag for RIJCOSX approximation but no HF exchange needed!
  ===> : RIJCOSX  will be disabled and Split-RI-J is turned on

WARNING: Geometry Optimization
  ===> : Switching off AutoStart
         For restart on a previous wavefunction, please use MOREAD

================================================================================
                                       INPUT FILE
================================================================================
NAME = SN2_scan_ts.inp
|  1> ! PBE def2-SVP RIJCOSX def2/J ScanTS TIGHTSCF SLOWCONV Freq
|  2> 
|  3> %pal
|  4>     nprocs 4
|  5> end
|  6> 
|  7> %maxcore 750
|  8> 
|  9> %geom
| 10>     scan B 0 5 = 3., 1.0, 30 end
| 11> end
| 12> 
| 13> *xyz -1 1
| 14>     C    -4.012150000000      1.254880000000     -0.039060000000
| 15>     Br   -2.249570000000      1.185170000000     -0.277250000000
| 16>     H    -4.243710000000      2.126130000000      0.576650000000
| 17>     H    -4.329930000000      0.338390000000      0.461790000000
| 18>     H    -4.490100000000      1.340740000000     -1.016800000000
| 19>     Cl   -7.213690000000      1.381520000000      0.393620000000
| 20> *
| 21> 
| 22> 
| 23>                          ****END OF INPUT****
================================================================================

                       ******************************
                       *    Relaxed Surface Scan    *
                       ******************************

                      Bond (  5,   0):   range=   3.00000000 ..   1.00000000  steps =   30

There is 1 parameter to be scanned.
There will be   30 constrained geometry optimizations.


         *************************************************************
         *               RELAXED SURFACE SCAN STEP   1               *
         *                                                           *
         *                 Bond (  5,   0)  :   3.00000000           *
         *************************************************************

Geometry optimization settings:
Update method            Update   .... BFGS
Choice of coordinates    CoordSys .... (2022) Redundant Internals
Initial Hessian          InHess   .... Almloef's Model
Max. no of cycles        MaxIter  .... 50

Convergence Tolerances:
Energy Change            TolE     ....  5.0000e-06 Eh
Max. Gradient            TolMAXG  ....  3.0000e-04 Eh/bohr
RMS Gradient             TolRMSG  ....  1.0000e-04 Eh/bohr
Max. Displacement        TolMAXD  ....  4.0000e-03 bohr
RMS Displacement         TolRMSD  ....  2.0000e-03 bohr
Strict Convergence                .... False

------------------------------------------------------------------------------
                        ORCA OPTIMIZATION COORDINATE SETUP
------------------------------------------------------------------------------

The optimization will be done in redundant internal coordinates (2022)
Making redundant internal coordinates   ...  (2022 redundants) done
Evaluating the initial hessian          ...  (Almloef) done
Evaluating the coordinates              ...  done
Calculating the B-matrix                .... done
Calculating the G-matrix                .... done
Diagonalizing the G-matrix              .... done
The first mode is                       ....    5
The number of degrees of freedom        ....   12
Storing new coordinates                 .... done

    -----------------------------------------------------------------
                    Redundant Internal Coordinates


    -----------------------------------------------------------------
         Definition                    Initial Value    Approx d2E/dq
    -----------------------------------------------------------------
      1. B(Br  1,C   0)                  1.7800         0.501262   
      2. B(H   2,C   0)                  1.1014         0.357866   
      3. B(H   3,C   0)                  1.1014         0.357870   
      4. B(H   4,C   0)                  1.1014         0.357873   
      5. B(Cl  5,H   4)                  2.9790         0.000566   
      6. B(Cl  5,H   2)                  2.9790         0.000566   
      7. B(Cl  5,H   3)                  2.9790         0.000566   
      8. B(Cl  5,C   0)                  3.0000         0.001607 C 
      9. A(H   2,C   0,H   3)          116.0055         0.290272   
     10. A(Br  1,C   0,H   4)          101.6870         0.361497   
     11. A(H   2,C   0,H   4)          116.0053         0.290273   
     12. A(H   3,C   0,H   4)          116.0043         0.290273   
     13. A(H   2,C   0,Cl  5)           78.3121         0.161416   
     14. A(H   3,C   0,Cl  5)           78.3131         0.161416   
     15. A(H   4,C   0,Cl  5)           78.3136         0.161416   
     16. A(Br  1,C   0,H   2)          101.6872         0.361496   
     17. A(Br  1,C   0,H   3)          101.6869         0.361497   
    -----------------------------------------------------------------

Number of atoms                         .... 6
Number of degrees of freedom            .... 17


         *************************************************************
         *                GEOMETRY OPTIMIZATION CYCLE   1            *
         *************************************************************
---------------------------------
CARTESIAN COORDINATES (ANGSTROEM)
---------------------------------
  C     -4.111380    1.258804   -0.025650
  Br    -2.348800    1.189096   -0.263839
  H     -4.216819    2.160913    0.597316
  H     -4.306625    0.298837    0.477681
  H     -4.473455    1.342866   -1.062391
  Cl    -7.082071    1.376314    0.375833

----------------------------
CARTESIAN COORDINATES (A.U.)
----------------------------
  NO LB      ZA    FRAG     MASS         X           Y           Z
   0 C     6.0000    0    12.011   -7.769382    2.378796   -0.048471
   1 Br   35.0000    0    79.900   -4.438588    2.247065   -0.498583
   2 H     1.0000    0     1.008   -7.968633    4.083533    1.128764
   3 H     1.0000    0     1.008   -8.138342    0.564720    0.902685
   4 H     1.0000    0     1.008   -8.453606    2.537649   -2.007627
   5 Cl   17.0000    0    35.453  -13.383174    2.600857    0.710221

--------------------------------
INTERNAL COORDINATES (ANGSTROEM)
--------------------------------
 C      0   0   0     0.000000000000     0.00000000     0.00000000
 Br     1   0   0     1.779966914468     0.00000000     0.00000000
 H      1   2   0     1.091693821637   108.46748422     0.00000000
 H      1   2   3     1.091690785433   108.46715783   239.99952633
 H      1   2   3     1.091688439849   108.46722708   120.00033733
 Cl     3   1   2     3.067364541981    88.73876492   180.00030939

---------------------------
INTERNAL COORDINATES (A.U.)
---------------------------
 C      0   0   0     0.000000000000     0.00000000     0.00000000
 Br     1   0   0     3.363649995785     0.00000000     0.00000000
 H      1   2   0     2.063002344987   108.46748422     0.00000000
 H      1   2   3     2.062996607394   108.46715783   239.99952633
 H      1   2   3     2.062992174882   108.46722708   120.00033733
 Cl     3   1   2     5.796478937244    88.73876492   180.00030939

---------------------
BASIS SET INFORMATION
---------------------
There are 4 groups of distinct atoms

 Group   1 Type C   : 7s4p1d contracted to 3s2p1d pattern {511/31/1}
 Group   2 Type Br  : 14s10p6d contracted to 5s4p3d pattern {63311/5311/411}
 Group   3 Type H   : 4s1p contracted to 2s1p pattern {31/1}
 Group   4 Type Cl  : 10s7p1d contracted to 4s3p1d pattern {5311/511/1}

Atom   0C    basis set group =>   1
Atom   1Br   basis set group =>   2
Atom   2H    basis set group =>   3
Atom   3H    basis set group =>   3
Atom   4H    basis set group =>   3
Atom   5Cl   basis set group =>   4
---------------------------------
AUXILIARY/J BASIS SET INFORMATION
---------------------------------
There are 4 groups of distinct atoms

 Group   1 Type C   : 12s5p4d2f1g contracted to 6s4p3d1f1g pattern {711111/2111/211/2/1}
 Group   2 Type Br  : 19s5p5d3f1g contracted to 8s4p3d2f1g pattern {121111111/2111/311/21/1}
 Group   3 Type H   : 5s2p1d contracted to 3s1p1d pattern {311/2/1}
 Group   4 Type Cl  : 14s5p5d2f1g contracted to 8s4p3d1f1g pattern {71111111/2111/311/2/1}

Atom   0C    basis set group =>   1
Atom   1Br   basis set group =>   2
Atom   2H    basis set group =>   3
Atom   3H    basis set group =>   3
Atom   4H    basis set group =>   3
Atom   5Cl   basis set group =>   4


           ************************************************************
           *        Program running with 4 parallel MPI-processes     *
           *              working on a common directory               *
           ************************************************************
------------------------------------------------------------------------------
                             ORCA STARTUP CALCULATIONS
                           -- RI-GTO INTEGRALS CHOSEN --
------------------------------------------------------------------------------
------------------------------------------------------------------------------
                   ___                                                        
                  /   \      - P O W E R E D   B Y -                         
                 /     \                                                     
                 |  |  |   _    _      __       _____    __    __             
                 |  |  |  | |  | |    /  \     |  _  \  |  |  /  |          
                  \  \/   | |  | |   /    \    | | | |  |  | /  /          
                 / \  \   | |__| |  /  /\  \   | |_| |  |  |/  /          
                |  |  |   |  __  | /  /__\  \  |    /   |      \           
                |  |  |   | |  | | |   __   |  |    \   |  |\   \          
                \     /   | |  | | |  |  |  |  | |\  \  |  | \   \       
                 \___/    |_|  |_| |__|  |__|  |_| \__\ |__|  \__/        
                                                                              
                      - O R C A' S   B I G   F R I E N D -                    
                                      &                                       
                       - I N T E G R A L  F E E D E R -                       
                                                                              
 v1 FN, 2020, v2 2021, v3 2022-2024                                           
------------------------------------------------------------------------------


----------------------
SHARK INTEGRAL PACKAGE
----------------------

Number of atoms                             ...      6
Number of basis functions                   ...     79
Number of shells                            ...     35
Maximum angular momentum                    ...      2
Integral batch strategy                     ... SHARK/LIBINT Hybrid
RI-J (if used) integral strategy            ... SPLIT-RIJ (Revised 2003 algorithm where possible)
Printlevel                                  ...      1
Contraction scheme used                     ... SEGMENTED contraction
Prescreening option                         ... SCHWARTZ
   Thresh                                   ... 2.500e-11
   Tcut                                     ... 2.500e-12
   Tpresel                                  ... 2.500e-12 
Coulomb Range Separation                    ... NOT USED
Exchange Range Separation                   ... NOT USED
Multipole approximations                    ... NOT USED
Finite Nucleus Model                        ... NOT USED
CABS basis                                  ... NOT available
Auxiliary Coulomb fitting basis             ... AVAILABLE
   # of basis functions in Aux-J            ...    191
   # of shells in Aux-J                     ...     65
   Maximum angular momentum in Aux-J        ...      4
Auxiliary J/K fitting basis                 ... NOT available
Auxiliary Correlation fitting basis         ... NOT available
Auxiliary 'external' fitting basis          ... NOT available

Checking pre-screening integrals            ... done (  0.0 sec) Dimension = 35
Check shell pair data                       ... done (  0.0 sec)
Shell pair information
Shell pair cut-off parameter TPreSel        ...   2.5e-12
Total number of shell pairs                 ...       630
Shell pairs after pre-screening             ...       578
Total number of primitive shell pairs       ...      2935
Primitive shell pairs kept                  ...      2085
          la=0 lb=0:    157 shell pairs
          la=1 lb=0:    200 shell pairs
          la=1 lb=1:     73 shell pairs
          la=2 lb=0:     81 shell pairs
          la=2 lb=1:     54 shell pairs
          la=2 lb=2:     13 shell pairs

Calculating one electron integrals          ... done (  0.0 sec)
Calculating RI/J V-Matrix + Cholesky decomp.... done (  0.0 sec)
Calculating Nuclear repulsion               ... done (  0.0 sec) ENN=    189.276728342194 Eh

Diagonalization of the overlap matrix:
Smallest eigenvalue                        ... 7.071e-03
Time for diagonalization                   ...    0.001 sec
Threshold for overlap eigenvalues          ... 1.000e-07
Number of eigenvalues below threshold      ... 0
Time for construction of square roots      ...    0.000 sec
Total time needed                          ...    0.002 sec

-------------------
DFT GRID GENERATION
-------------------

General Integration Accuracy     IntAcc      ... 4.388
Radial Grid Type                 RadialGrid  ... OptM3 with GC (2021)
Angular Grid (max. ang.)         AngularGrid ... 4 (Lebedev-302)
Angular grid pruning method      GridPruning ... 4 (adaptive)
Weight generation scheme         WeightScheme... mBecke (2022)
Basis function cutoff            BFCut       ... 1.0000e-11
Integration weight cutoff        WCut        ... 1.0000e-14
Partially contracted basis set               ... off
Rotationally invariant grid construction     ... off
Angular grids for H and He will be reduced by one unit
Core-polarized basis detected: some atoms will have their core
                               angular grid increased.

Total number of grid points                  ...    34585
Total number of batches                      ...      544
Average number of points per batch           ...       63
Average number of grid points per atom       ...     5764
Initializing property integral containers    ... done (  0.0 sec)

SHARK setup successfully completed in   0.3 seconds

Maximum memory used throughout the entire STARTUP-calculation: 13.3 MB


           ************************************************************
           *        Program running with 4 parallel MPI-processes     *
           *              working on a common directory               *
           ************************************************************
-------------------------------------------------------------------------------
                                 ORCA GUESS
                   Start orbitals & Density for SCF / CASSCF
-------------------------------------------------------------------------------

------------
SCF SETTINGS
------------
Hamiltonian:
 Density Functional     Method          .... DFT(GTOs)
 Exchange Functional    Exchange        .... PBE
   PBE kappa parameter   XKappa         ....  0.804000
   PBE mue parameter    XMuePBE         ....  0.219520
 Correlation Functional Correlation     .... PBE
   PBE beta parameter  CBetaPBE         ....  0.066725
 LDA part of GGA corr.  LDAOpt          .... PW91-LDA
 Gradients option       PostSCFGGA      .... off
   NL short-range parameter             ....  6.400000
 RI-approximation to the Coulomb term is turned on
   Number of AuxJ basis functions       .... 191


General Settings:
 Integral files         IntName         .... SN2_scan_ts
 Hartree-Fock type      HFTyp           .... RHF
 Total Charge           Charge          ....   -1
 Multiplicity           Mult            ....    1
 Number of Electrons    NEL             ....   62
 Basis Dimension        Dim             ....   79
 Nuclear Repulsion      ENuc            ....    189.2767283422 Eh

Convergence Acceleration:
 AO-DIIS                CNVDIIS         .... on
   Start iteration      DIISMaxIt       ....     0
   Startup error        DIISStart       ....  0.200000
   # of expansion vecs  DIISMaxEq       ....     5
   Bias factor          DIISBfac        ....   1.050
   Max. coefficient     DIISMaxC        ....  10.000
 MO-DIIS                CNVKDIIS        .... off
 Trust-Rad. Augm. Hess. CNVTRAH         .... auto
   Auto Start mean grad. ratio tolernc. ....  1.125000
   Auto Start start iteration           ....    50
   Auto Start num. interpolation iter.  ....    10
   Max. Number of Micro iterations      ....    24
   Max. Number of Macro iterations      .... Maxiter - #DIIS iter
   Number of Davidson start vectors     ....     2
   Converg. threshold    (grad. norm)   ....   1.000e-05
   Grad. Scal. Fac. for Micro threshold ....   0.100
   Minimum threshold for Micro iter.    ....   1.000e-02
   NR start threshold (gradient norm)   ....   1.000e-04
   Initial trust radius                 ....   0.400
   Minimum AH scaling param. (alpha)    ....   1.000
   Maximum AH scaling param. (alpha)    .... 1000.000
   Quad. conv. algorithm                .... NR
   White noise on init. David. guess    .... on
   Maximum white noise                  ....   0.010
   Pseudo random numbers                .... off
   Inactive MOs                         .... canonical
   Orbital update algorithm             .... Taylor
   Preconditioner                       .... Diag
   Full preconditioner red. dimension   ....   250
 SOSCF                  CNVSOSCF        .... on
   Start iteration      SOSCFMaxIt      ....   150
   Startup grad/error   SOSCFStart      ....  0.001000
   Hessian update       SOSCFHessUp     .... L-BFGS
 Level Shifting         CNVShift        .... on
   Level shift para.    LevelShift      ....    0.2500
   Turn off err/grad.   ShiftErr        ....    0.0000
 Zerner damping         CNVZerner       .... off
 Static damping         CNVDamp         .... on
   Fraction old density DampFac         ....    0.8500
   Max. Damping (<1)    DampMax         ....    0.9800
   Min. Damping (>=0)   DampMin         ....    0.0000
   Turn off err/grad.   DampErr         ....    0.0300

SCF Procedure:
 Maximum # iterations   MaxIter         ....   125
 SCF integral mode      SCFMode         .... Direct
   Integral package                     .... SHARK and LIBINT hybrid scheme
 Reset frequency        DirectResetFreq ....    20
 Integral Threshold     Thresh          ....  2.500e-11 Eh
 Primitive CutOff       TCut            ....  2.500e-12 Eh

Convergence Tolerance:
 Convergence Check Mode ConvCheckMode   .... Total+1el-Energy
 Convergence forced     ConvForced      .... 0
 Energy Change          TolE            ....  1.000e-08 Eh
 1-El. energy change                    ....  1.000e-05 Eh
 Orbital Gradient       TolG            ....  1.000e-05
 Orbital Rotation angle TolX            ....  1.000e-05
 DIIS Error             TolErr          ....  5.000e-07

------------------------------
INITIAL GUESS: MODEL POTENTIAL
------------------------------
Loading Hartree-Fock densities                     ... done
Calculating cut-offs                               ... done
Initializing the effective Hamiltonian             ... done
Setting up the integral package (SHARK)            ... done
Starting the Coulomb interaction                   ... done (   0.0 sec)
Making the grid                                    ... done (   0.1 sec)
Mapping shells                                     ... done
Starting the XC term evaluation                    ... done (   0.0 sec)
  promolecular density results
     # of electrons  =     60.998860745
     EX              =   -122.636185750
     EC              =     -2.655064589
     EX+EC           =   -125.291250339
Transforming the Hamiltonian                       ... done (   0.0 sec)
Diagonalizing the Hamiltonian                      ... done (   0.0 sec)
Back transforming the eigenvectors                 ... done (   0.0 sec)
Now organizing SCF variables                       ... done
                      ------------------
                      INITIAL GUESS DONE (   0.1 sec)
                      ------------------
             **** ENERGY FILE WAS UPDATED (SN2_scan_ts.en.tmp) ****
Finished Guess after   0.2 sec
Maximum memory used throughout the entire GUESS-calculation: 8.2 MB


           ************************************************************
           *        Program running with 4 parallel MPI-processes     *
           *              working on a common directory               *
           ************************************************************

-------------------------------------------------------------------------------------------
                                      ORCA LEAN-SCF
                              memory conserving SCF solver
-------------------------------------------------------------------------------------------

----------------------------------------D-I-I-S--------------------------------------------
Iteration    Energy (Eh)           Delta-E    RMSDP     MaxDP     DIISErr   Damp  Time(sec)
-------------------------------------------------------------------------------------------
               ***  Starting incremental Fock matrix formation  ***
    1    -3073.0610659259673412     0.00e+00  3.03e-03  6.04e-02  1.47e-01  0.850   0.1
Warning: op=0 Small HOMO/LUMO gap (   0.057) - skipping pre-diagonalization
         Will do a full diagonalization
    2    -3073.0869524369700230    -2.59e-02  4.04e-03  7.25e-02  1.14e-01  0.850   0.1
                               ***Turning on AO-DIIS***
    3    -3073.1044987769646468    -1.75e-02  2.71e-03  5.12e-02  8.15e-02  0.850   0.1
    4    -3073.1157375428892919    -1.12e-02  1.88e-03  3.66e-02  6.23e-02  0.850   0.1
    5    -3073.1236633513644847    -7.93e-03  1.30e-03  2.56e-02  4.97e-02  0.850   0.1
    6    -3073.1297253560269382    -6.06e-03  9.05e-04  1.76e-02  4.10e-02  0.850   0.1
    7    -3073.1345913035720514    -4.87e-03  6.60e-04  1.23e-02  3.47e-02  0.850   0.1
    8    -3073.1385934928302959    -4.00e-03  5.33e-04  9.35e-03  2.97e-02  0.850   0.1
    9    -3073.1419125315251222    -3.32e-03  3.04e-03  5.12e-02  2.52e-02  0.000   0.1
   10    -3073.1591121215869862    -1.72e-02  1.97e-04  3.67e-03  2.14e-03  0.000   0.1
                              *** Initializing SOSCF ***
---------------------------------------S-O-S-C-F--------------------------------------
Iteration    Energy (Eh)           Delta-E    RMSDP     MaxDP     MaxGrad    Time(sec)
--------------------------------------------------------------------------------------
   11    -3073.1591335785869887    -2.15e-05  9.07e-05  1.99e-03  3.51e-04     0.1
               *** Restarting incremental Fock matrix formation ***
   12    -3073.1591346749710283    -1.10e-06  1.20e-04  2.93e-03  1.27e-04     0.1
   13    -3073.1591348453594037    -1.70e-07  1.67e-05  2.51e-04  1.08e-04     0.1
   14    -3073.1591349216650997    -7.63e-08  2.85e-05  6.68e-04  4.52e-05     0.1
   15    -3073.1591349455457021    -2.39e-08  9.29e-06  1.81e-04  1.76e-05     0.1
   16    -3073.1591349502068624    -4.66e-09  3.47e-06  5.43e-05  1.64e-05     0.1
                 **** Energy Check signals convergence ****

               *****************************************************
               *                     SUCCESS                       *
               *           SCF CONVERGED AFTER  16 CYCLES          *
               *****************************************************

             **** ENERGY FILE WAS UPDATED (SN2_scan_ts.en.tmp) ****

----------------
TOTAL SCF ENERGY
----------------

Total Energy       :      -3073.15913495020686 Eh          -83624.91147 eV

Components:
Nuclear Repulsion  :        189.27672834219425 Eh            5150.48162 eV
Electronic Energy  :      -3262.43586329240134 Eh          -88775.39309 eV
One Electron Energy:      -4660.72731691089666 Eh         -126824.83794 eV
Two Electron Energy:       1398.29145361849555 Eh           38049.44485 eV

Virial components:
Potential Energy   :      -6142.52829310381185 Eh         -167146.69243 eV
Kinetic Energy     :       3069.36915815360499 Eh           83521.78096 eV
Virial Ratio       :          2.00123477385786

DFT components:
N(Alpha)           :       31.000005646144 electrons
N(Beta)            :       31.000005646144 electrons
N(Total)           :       62.000011292288 electrons
E(X)               :     -123.098176326750 Eh       
E(C)               :       -2.704351850758 Eh       
E(XC)              :     -125.802528177508 Eh       

---------------
SCF CONVERGENCE
---------------

  Last Energy change         ...    4.6612e-09  Tolerance :   1.0000e-08
  Last MAX-Density change    ...    5.4276e-05  Tolerance :   1.0000e-07
  Last RMS-Density change    ...    3.4731e-06  Tolerance :   5.0000e-09
  Last DIIS Error            ...    3.5084e-04  Tolerance :   5.0000e-07
  Last Orbital Gradient      ...    1.6448e-05  Tolerance :   1.0000e-05
  Last Orbital Rotation      ...    1.3706e-05  Tolerance :   1.0000e-05


----------------
ORBITAL ENERGIES
----------------

  NO   OCC          E(Eh)            E(eV) 
   0   2.0000    -480.770392    -13082.4275 
   1   2.0000    -100.269711     -2728.4775 
   2   2.0000     -61.614347     -1676.6116 
   3   2.0000     -55.544224     -1511.4352 
   4   2.0000     -55.542036     -1511.3756 
   5   2.0000     -55.542035     -1511.3756 
   6   2.0000      -9.770476      -265.8682 
   7   2.0000      -8.801524      -239.5016 
   8   2.0000      -8.241311      -224.2575 
   9   2.0000      -6.626438      -180.3146 
  10   2.0000      -6.625302      -180.2836 
  11   2.0000      -6.625302      -180.2836 
  12   2.0000      -6.121464      -166.5735 
  13   2.0000      -6.109814      -166.2565 
  14   2.0000      -6.109814      -166.2565 
  15   2.0000      -2.323684       -63.2307 
  16   2.0000      -2.320419       -63.1418 
  17   2.0000      -2.320416       -63.1417 
  18   2.0000      -2.311491       -62.8989 
  19   2.0000      -2.311487       -62.8988 
  20   2.0000      -0.616590       -16.7783 
  21   2.0000      -0.416940       -11.3455 
  22   2.0000      -0.362238        -9.8570 
  23   2.0000      -0.246561        -6.7093 
  24   2.0000      -0.246559        -6.7092 
  25   2.0000      -0.191066        -5.1992 
  26   2.0000      -0.083615        -2.2753 
  27   2.0000      -0.083615        -2.2753 
  28   2.0000       0.051582         1.4036 
  29   2.0000       0.055609         1.5132 
  30   2.0000       0.055609         1.5132 
  31   0.0000       0.180388         4.9086 
  32   0.0000       0.215507         5.8642 
  33   0.0000       0.249349         6.7851 
  34   0.0000       0.249351         6.7852 
  35   0.0000       0.453812        12.3488 
  36   0.0000       0.526485        14.3264 
  37   0.0000       0.526488        14.3265 
  38   0.0000       0.549051        14.9404 
  39   0.0000       0.618708        16.8359 
  40   0.0000       0.618708        16.8359 
  41   0.0000       0.694155        18.8889 
*Only the first 10 virtual orbitals were printed.

                    ********************************
                    * MULLIKEN POPULATION ANALYSIS *
                    ********************************

-----------------------
MULLIKEN ATOMIC CHARGES
-----------------------
   0 C :    0.012413
   1 Br:   -0.324337
   2 H :    0.051955
   3 H :    0.051956
   4 H :    0.051960
   5 Cl:   -0.843947
Sum of atomic charges:   -1.0000000

--------------------------------
MULLIKEN REDUCED ORBITAL CHARGES
--------------------------------
  0 C s       :     3.055233  s :     3.055233
      pz      :     1.037424  p :     2.898664
      px      :     0.820122
      py      :     1.041118
      dz2     :     0.006604  d :     0.033689
      dxz     :     0.005478
      dyz     :     0.005049
      dx2y2   :     0.012056
      dxy     :     0.004502

  1 Brs       :     7.968288  s :     7.968288
      pz      :     5.980589  p :    17.281482
      px      :     5.308882
      py      :     5.992011
      dz2     :     2.006814  d :    10.074567
      dxz     :     2.023351
      dyz     :     2.001349
      dx2y2   :     2.021056
      dxy     :     2.021997

  2 H s       :     0.924493  s :     0.924493
      pz      :     0.007548  p :     0.023553
      px      :     0.005553
      py      :     0.010452

  3 H s       :     0.924492  s :     0.924492
      pz      :     0.006533  p :     0.023553
      px      :     0.006008
      py      :     0.011012

  4 H s       :     0.924488  s :     0.924488
      pz      :     0.011827  p :     0.023553
      px      :     0.007160
      py      :     0.004565

  5 Cls       :     5.994316  s :     5.994316
      pz      :     3.980975  p :    11.849353
      px      :     3.885785
      py      :     3.982592
      dz2     :     0.000046  d :     0.000278
      dxz     :     0.000052
      dyz     :     0.000000
      dx2y2   :     0.000131
      dxy     :     0.000048



                     *******************************
                     * LOEWDIN POPULATION ANALYSIS *
                     *******************************

----------------------
LOEWDIN ATOMIC CHARGES
----------------------
   0 C :   -0.157726
   1 Br:   -0.059830
   2 H :    0.018760
   3 H :    0.018760
   4 H :    0.018761
   5 Cl:   -0.838725

-------------------------------
LOEWDIN REDUCED ORBITAL CHARGES
-------------------------------
  0 C s       :     2.911180  s :     2.911180
      pz      :     1.094314  p :     3.159501
      px      :     0.968738
      py      :     1.096449
      dz2     :     0.016270  d :     0.087044
      dxz     :     0.014379
      dyz     :     0.014743
      dx2y2   :     0.031357
      dxy     :     0.010296

  1 Brs       :     7.754400  s :     7.754400
      pz      :     5.944943  p :    17.204127
      px      :     5.303328
      py      :     5.955855
      dz2     :     2.011323  d :    10.101303
      dxz     :     2.027664
      dyz     :     2.001556
      dx2y2   :     2.035402
      dxy     :     2.025357

  2 H s       :     0.911138  s :     0.911138
      pz      :     0.022317  p :     0.070102
      px      :     0.014464
      py      :     0.033321

  3 H s       :     0.911138  s :     0.911138
      pz      :     0.018638  p :     0.070103
      px      :     0.015709
      py      :     0.035756

  4 H s       :     0.911137  s :     0.911137
      pz      :     0.039270  p :     0.070103
      px      :     0.019159
      py      :     0.011673

  5 Cls       :     5.988639  s :     5.988639
      pz      :     3.983082  p :    11.849845
      px      :     3.881963
      py      :     3.984800
      dz2     :     0.000037  d :     0.000241
      dxz     :     0.000053
      dyz     :     0.000000
      dx2y2   :     0.000099
      dxy     :     0.000052



                      *****************************
                      * MAYER POPULATION ANALYSIS *
                      *****************************

  NA   - Mulliken gross atomic population
  ZA   - Total nuclear charge
  QA   - Mulliken gross atomic charge
  VA   - Mayer's total valence
  BVA  - Mayer's bonded valence
  FA   - Mayer's free valence

  ATOM       NA         ZA         QA         VA         BVA        FA
  0 C      5.9876     6.0000     0.0124     3.8326     3.8326    -0.0000
  1 Br    35.3243    35.0000    -0.3243     0.9514     0.9514    -0.0000
  2 H      0.9480     1.0000     0.0520     1.0412     1.0412    -0.0000
  3 H      0.9480     1.0000     0.0520     1.0412     1.0412    -0.0000
  4 H      0.9480     1.0000     0.0520     1.0412     1.0412    -0.0000
  5 Cl    17.8439    17.0000    -0.8439     0.2981     0.2981    -0.0000

  Mayer bond orders larger than 0.100000
B(  0-C ,  1-Br) :   0.8647 B(  0-C ,  2-H ) :   0.9715 B(  0-C ,  3-H ) :   0.9715 
B(  0-C ,  4-H ) :   0.9716 

-------
TIMINGS
-------

Total SCF time: 0 days 0 hours 0 min 1 sec 

Total time                  ....       1.337 sec
Sum of individual times     ....       1.314 sec  ( 98.3%)

SCF preparation             ....       0.077 sec  (  5.8%)
Fock matrix formation       ....       1.145 sec  ( 85.7%)
  Startup                   ....       0.005 sec  (  0.4% of F)
  Split-RI-J                ....       0.300 sec  ( 26.2% of F)
  XC integration            ....       0.819 sec  ( 71.5% of F)
    XC Preparation          ....       0.000 sec  (  0.0% of XC)
    Basis function eval.    ....       0.244 sec  ( 29.8% of XC)
    Density eval.           ....       0.098 sec  ( 11.9% of XC)
    XC-Functional eval.     ....       0.079 sec  (  9.7% of XC)
    XC-Potential eval.      ....       0.107 sec  ( 13.0% of XC)
Diagonalization             ....       0.000 sec  (  0.0%)
Density matrix formation    ....       0.010 sec  (  0.7%)
Total Energy calculation    ....       0.008 sec  (  0.6%)
Population analysis         ....       0.005 sec  (  0.4%)
Orbital Transformation      ....       0.006 sec  (  0.4%)
Orbital Orthonormalization  ....       0.000 sec  (  0.0%)
DIIS solution               ....       0.051 sec  (  3.8%)
SOSCF solution              ....       0.012 sec  (  0.9%)
Finished LeanSCF after   1.3 sec

Maximum memory used throughout the entire LEANSCF-calculation: 7.7 MB


           ************************************************************
           *        Program running with 4 parallel MPI-processes     *
           *              working on a common directory               *
           ************************************************************

------------------------------------------------------------------------------
                         ORCA PROPERTY INTEGRAL CALCULATIONS
------------------------------------------------------------------------------

GBWName                                   ... SN2_scan_ts.gbw
Number of atoms                           ...      6
Number of basis functions                 ...     79
Max core memory                           ...    750 MB

Dipole integrals                          ... YES
Quadrupole integrals                      ...  NO
Linear momentum integrals                 ...  NO
Angular momentum integrals                ...  NO
Higher moments length integrals           ...  NO
Higher moments velocity integrals         ...  NO
Kinetic energy integrals                  ...  NO
GIAO right hand sides                     ...  NO
GIAO dipole derivative integrals          ...  NO
SOC integrals                             ...  NO
EPR diamagnetic integrals (GIAO)          ...  NO
EPR gauge integrals                       ...  NO
Field gradient integrals                  ...  NO (   0 nuclei)
Spin-dipole/Fermi contact integrals       ...  NO (   0 nuclei)
Contact density integrals                 ...  NO (   0 nuclei)
Nucleus-orbit integrals                   ...  NO (   0 nuclei)
Geometric perturbations                   ...  NO (   6 nuclei)

Choice of electric origin   ... Center of mass
Position of electric origin ... ( -7.2644,  2.3588, -0.1167) 
Choice of magnetic origin   ... GIAO
Position of magnetic origin ... (  0.0000,  0.0000,  0.0000) 

Calculating integrals                     ... Electric Dipole (Length)     done (  0.0 sec)

Property integrals calculated in   0.0 sec

Maximum memory used throughout the entire PROPINT-calculation: 6.6 MB

-------------------------   --------------------
FINAL SINGLE POINT ENERGY     -3073.159134950207
-------------------------   --------------------



           ************************************************************
           *        Program running with 4 parallel MPI-processes     *
           *              working on a common directory               *
           ************************************************************
------------------------------------------------------------------------------
                         ORCA SCF GRADIENT CALCULATION
------------------------------------------------------------------------------

Nuc. rep. gradient        (SHARK) ... done (  0.0 sec)
HCore & Overlap gradient  (SHARK) ... done (  0.0 sec)
Split-RIJ-J gradient      (SHARK) ... done (  0.2 sec)
XC gradient                       ... done (  0.3 sec)

------------------
CARTESIAN GRADIENT
------------------

   1   C   :    0.058234433   -0.002315222   -0.007864943
   2   Br  :   -0.128433318    0.005091752    0.017347679
   3   H   :    0.023921854    0.006177042    0.001591593
   4   H   :    0.023208201   -0.008588425    0.000647031
   5   H   :    0.021889510   -0.000313640   -0.011573124
   6   Cl  :    0.001179320   -0.000051506   -0.000148236

Difference to translation invariance:
           :    0.0000000004    0.0000000000    0.0000000000

Difference to rotation invariance:
           :   -0.0000034981    0.0000789497    0.0000646218

Norm of the Cartesian gradient     ...    0.1487306222
RMS gradient                       ...    0.0350561438
MAX gradient                       ...    0.1284333183

-------
TIMINGS
-------

Total SCF gradient time     ....        0.475 sec

Densities                   ....       0.000 sec  (  0.0%)
One electron gradient       ....       0.015 sec  (  3.1%)
RI-J Coulomb gradient       ....       0.177 sec  ( 37.2%)
XC gradient                 ....       0.284 sec  ( 59.6%)

Maximum memory used throughout the entire SCFGRAD-calculation: 9.7 MB
------------------------------------------------------------------------------
                         ORCA GEOMETRY RELAXATION STEP
------------------------------------------------------------------------------

Reading the OPT-File                    .... done
Getting information on internals        .... done
Copying old internal coords+grads       .... done
Making the new internal coordinates     .... (2022 redundants) done
Validating the new internal coordinates .... (2022 redundants) done
Calculating the B-matrix                .... done
Calculating the G,G- and P matrices     .... done
Transforming gradient to internals      .... done
Projecting the internal gradient        .... done
Number of atoms                         ....   6
Number of internal coordinates          ....  17
Current Energy                          .... -3073.159134950 Eh
Current gradient norm                   ....     0.148730622 Eh/bohr
Maximum allowed component of the step   ....  0.300
Current trust radius                    ....  0.300
Evaluating the initial hessian          ....  (Almloef) done
Projecting the Hessian                  .... done
Forming the augmented Hessian           .... done
Diagonalizing the augmented Hessian     .... done
Last element of RFO vector              ....  0.945553269
Lowest eigenvalues of augmented Hessian:
 -0.039566781  0.034354021  0.034354217  0.107083776  0.287061206
Length of the computed step             ....  0.344208404
Warning: the length of the step is outside the trust region - taking restricted step instead
The input lambda is                     ....     0.033354
   iter:   5  x=   -0.073950  g=    0.637999 f(x)=     0.000647
The output lambda is                    ....    -0.073957 (8 iterations)
The final length of the internal step   ....  0.300000000
Converting the step to Cartesian space:
 Initial RMS(Int)=    0.0727606875
Transforming coordinates:
 Iter   0:  RMS(Cart)=    0.0648791137 RMS(Int)=    0.0729588559
Imposing constraints:
 Iter   0:  RMS(Cart)=    0.0000828085 RMS(Int)=    0.0003622853
 Iter   5:  RMS(Cart)=    0.0000022491 RMS(Int)=    0.0000098396
 Iter  10:  RMS(Cart)=    0.0000000611 RMS(Int)=    0.0000002672
CONVERGED
done
Storing new coordinates                 .... done

                                .--------------------.
          ----------------------|Geometry convergence|-------------------------
          Item                value                   Tolerance       Converged
          ---------------------------------------------------------------------
          RMS gradient        0.0325365571            0.0001000000      NO
          MAX gradient        0.1296995951            0.0003000000      NO
          RMS step            0.0727606875            0.0020000000      NO
          MAX step            0.2254782826            0.0040000000      NO
          ........................................................
          Max(Bonds)      0.1193      Max(Angles)    2.52
          Max(Dihed)        0.00      Max(Improp)    0.00
          ---------------------------------------------------------------------

The optimization has not yet converged - more geometry cycles are needed


    ---------------------------------------------------------------------------
                         Redundant Internal Coordinates
                            (Angstroem and degrees)

        Definition                    Value    dE/dq     Step     New-Value
    ----------------------------------------------------------------------------
     1. B(Br  1,C   0)                1.7800 -0.129700  0.1193    1.8993   
     2. B(H   2,C   0)                1.1014  0.002360 -0.0032    1.0982   
     3. B(H   3,C   0)                1.1014  0.002358 -0.0032    1.0982   
     4. B(H   4,C   0)                1.1014  0.002362 -0.0032    1.0982   
     5. B(Cl  5,H   4)                2.9790  0.007910 -0.0483    2.9307   
     6. B(Cl  5,H   2)                2.9790  0.007902 -0.0482    2.9308   
     7. B(Cl  5,H   3)                2.9790  0.007907 -0.0482    2.9308   
     8. B(Cl  5,C   0)                3.0000 -0.023300 -0.0000    3.0000 C 
     9. A(H   2,C   0,H   3)          116.01  0.009432   -1.67    114.34   
    10. A(Br  1,C   0,H   4)          101.69 -0.014249    2.52    104.20   
    11. A(H   2,C   0,H   4)          116.01  0.009430   -1.67    114.34   
    12. A(H   3,C   0,H   4)          116.00  0.009432   -1.67    114.34   
    13. A(H   2,C   0,Cl  5)           78.31  0.014241   -2.52     75.80   
    14. A(H   3,C   0,Cl  5)           78.31  0.014244   -2.52     75.80   
    15. A(H   4,C   0,Cl  5)           78.31  0.014245   -2.52     75.80   
    16. A(Br  1,C   0,H   2)          101.69 -0.014255    2.52    104.21   
    17. A(Br  1,C   0,H   3)          101.69 -0.014227    2.51    104.20   
    ----------------------------------------------------------------------------

Geometry step timings:
Preparation and reading OPT file:      0.000 s (11.534 %)
Internal coordinates            :      0.000 s ( 2.857 %)
B/P matrices and projection     :      0.000 s (17.989 %)
Hessian update/contruction      :      0.000 s (12.593 %)
Making the step                 :      0.000 s (14.603 %)
Converting the step to Cartesian:      0.000 s ( 6.349 %)
Storing new data                :      0.000 s ( 2.857 %)
Checking convergence            :      0.000 s ( 0.106 %)
Final printing                  :      0.000 s (30.688 %)
Total time                      :      0.001 s

Time for energy+gradient        :      4.404 s
Time for complete geometry iter :      4.527 s

         *************************************************************
         *                GEOMETRY OPTIMIZATION CYCLE   2            *
         *************************************************************
---------------------------------
CARTESIAN COORDINATES (ANGSTROEM)
---------------------------------
  C     -4.108266    1.258701   -0.026070
  Br    -2.227537    1.184257   -0.280233
  H     -4.260800    2.151092    0.595417
  H     -4.349443    0.313024    0.477322
  H     -4.514145    1.343592   -1.042886
  Cl    -7.078960    1.376164    0.375399

----------------------------
CARTESIAN COORDINATES (A.U.)
----------------------------
  NO LB      ZA    FRAG     MASS         X           Y           Z
   0 C     6.0000    0    12.011   -7.763497    2.378601   -0.049264
   1 Br   35.0000    0    79.900   -4.209434    2.237921   -0.529564
   2 H     1.0000    0     1.008   -8.051744    4.064974    1.125175
   3 H     1.0000    0     1.008   -8.219256    0.591530    0.902008
   4 H     1.0000    0     1.008   -8.530497    2.539020   -1.970768
   5 Cl   17.0000    0    35.453  -13.377296    2.600573    0.709402

--------------------------------
INTERNAL COORDINATES (ANGSTROEM)
--------------------------------
 C      0   0   0     0.000000000000     0.00000000     0.00000000
 Br     1   0   0     1.899284882610     0.00000000     0.00000000
 H      1   2   0     1.098122444766   104.18987726     0.00000000
 H      1   2   3     1.098123070371   104.18602654   239.99983003
 H      1   2   3     1.098116159958   104.18891799   120.00149056
 Cl     5   1   2     2.931018802071    82.89028306   179.99754099

---------------------------
INTERNAL COORDINATES (A.U.)
---------------------------
 C      0   0   0     0.000000000000     0.00000000     0.00000000
 Br     1   0   0     3.589128278431     0.00000000     0.00000000
 H      1   2   0     2.075150682120   104.18987726     0.00000000
 H      1   2   3     2.075151864342   104.18602654   239.99983003
 H      1   2   3     2.075138805555   104.18891799   120.00149056
 Cl     5   1   2     5.538822829289    82.89028306   179.99754099



           ************************************************************
           *        Program running with 4 parallel MPI-processes     *
           *              working on a common directory               *
           ************************************************************
------------------------------------------------------------------------------
                   ___                                                        
                  /   \      - P O W E R E D   B Y -                         
                 /     \                                                     
                 |  |  |   _    _      __       _____    __    __             
                 |  |  |  | |  | |    /  \     |  _  \  |  |  /  |          
                  \  \/   | |  | |   /    \    | | | |  |  | /  /          
                 / \  \   | |__| |  /  /\  \   | |_| |  |  |/  /          
                |  |  |   |  __  | /  /__\  \  |    /   |      \           
                |  |  |   | |  | | |   __   |  |    \   |  |\   \          
                \     /   | |  | | |  |  |  |  | |\  \  |  | \   \       
                 \___/    |_|  |_| |__|  |__|  |_| \__\ |__|  \__/        
                                                                              
                      - O R C A' S   B I G   F R I E N D -                    
                                      &                                       
                       - I N T E G R A L  F E E D E R -                       
                                                                              
 v1 FN, 2020, v2 2021, v3 2022-2024                                           
------------------------------------------------------------------------------


----------------------
SHARK INTEGRAL PACKAGE
----------------------

Number of atoms                             ...      6
Number of basis functions                   ...     79
Number of shells                            ...     35
Maximum angular momentum                    ...      2
Integral batch strategy                     ... SHARK/LIBINT Hybrid
RI-J (if used) integral strategy            ... SPLIT-RIJ (Revised 2003 algorithm where possible)
Printlevel                                  ...      1
Contraction scheme used                     ... SEGMENTED contraction
Prescreening option                         ... SCHWARTZ
   Thresh                                   ... 2.500e-11
   Tcut                                     ... 2.500e-12
   Tpresel                                  ... 2.500e-12 
Coulomb Range Separation                    ... NOT USED
Exchange Range Separation                   ... NOT USED
Multipole approximations                    ... NOT USED
Finite Nucleus Model                        ... NOT USED
CABS basis                                  ... NOT available
Auxiliary Coulomb fitting basis             ... AVAILABLE
   # of basis functions in Aux-J            ...    191
   # of shells in Aux-J                     ...     65
   Maximum angular momentum in Aux-J        ...      4
Auxiliary J/K fitting basis                 ... NOT available
Auxiliary Correlation fitting basis         ... NOT available
Auxiliary 'external' fitting basis          ... NOT available

Checking pre-screening integrals            ... done (  0.0 sec) Dimension = 35
Check shell pair data                       ... done (  0.0 sec)
Shell pair information
Shell pair cut-off parameter TPreSel        ...   2.5e-12
Total number of shell pairs                 ...       630
Shell pairs after pre-screening             ...       576
Total number of primitive shell pairs       ...      2935
Primitive shell pairs kept                  ...      2058
          la=0 lb=0:    156 shell pairs
          la=1 lb=0:    199 shell pairs
          la=1 lb=1:     73 shell pairs
          la=2 lb=0:     81 shell pairs
          la=2 lb=1:     54 shell pairs
          la=2 lb=2:     13 shell pairs

Calculating one electron integrals          ... done (  0.0 sec)
Calculating RI/J V-Matrix + Cholesky decomp.... done (  0.0 sec)
Calculating Nuclear repulsion               ... done (  0.0 sec) ENN=    182.512492638781 Eh

Diagonalization of the overlap matrix:
Smallest eigenvalue                        ... 8.994e-03
Time for diagonalization                   ...    0.001 sec
Threshold for overlap eigenvalues          ... 1.000e-07
Number of eigenvalues below threshold      ... 0
Time for construction of square roots      ...    0.000 sec
Total time needed                          ...    0.002 sec

-------------------
DFT GRID GENERATION
-------------------

General Integration Accuracy     IntAcc      ... 4.388
Radial Grid Type                 RadialGrid  ... OptM3 with GC (2021)
Angular Grid (max. ang.)         AngularGrid ... 4 (Lebedev-302)
Angular grid pruning method      GridPruning ... 4 (adaptive)
Weight generation scheme         WeightScheme... mBecke (2022)
Basis function cutoff            BFCut       ... 1.0000e-11
Integration weight cutoff        WCut        ... 1.0000e-14
Partially contracted basis set               ... off
Rotationally invariant grid construction     ... off
Angular grids for H and He will be reduced by one unit
Core-polarized basis detected: some atoms will have their core
                               angular grid increased.

Total number of grid points                  ...    34597
Total number of batches                      ...      544
Average number of points per batch           ...       63
Average number of grid points per atom       ...     5766
Initializing property integral containers    ... done (  0.0 sec)

SHARK setup successfully completed in   0.3 seconds

Maximum memory used throughout the entire STARTUP-calculation: 13.4 MB


           ************************************************************
           *        Program running with 4 parallel MPI-processes     *
           *              working on a common directory               *
           ************************************************************
Occupation numbers will be reassigned to an Aufbau configuration
             **** ENERGY FILE WAS UPDATED (SN2_scan_ts.en.tmp) ****
Finished Guess after   0.1 sec
Maximum memory used throughout the entire GUESS-calculation: 6.5 MB


           ************************************************************
           *        Program running with 4 parallel MPI-processes     *
           *              working on a common directory               *
           ************************************************************
----------------------------------------D-I-I-S--------------------------------------------
Iteration    Energy (Eh)           Delta-E    RMSDP     MaxDP     DIISErr   Damp  Time(sec)
-------------------------------------------------------------------------------------------
               ***  Starting incremental Fock matrix formation  ***
    1    -3073.1808386877437442     0.00e+00  3.32e-04  4.50e-03  2.75e-02  0.850   0.1
    2    -3073.1813724845610523    -5.34e-04  3.44e-04  4.90e-03  2.33e-02  0.850   0.1
                               ***Turning on AO-DIIS***
    3    -3073.1818417024933296    -4.69e-04  3.05e-04  4.29e-03  1.98e-02  0.850   0.1
    4    -3073.1822261941192664    -3.84e-04  1.78e-03  2.45e-02  1.69e-02  0.000   0.1
    5    -3073.1843156168524729    -2.09e-03  2.21e-04  5.04e-03  3.42e-03  0.000   0.1
    6    -3073.1843350309768539    -1.94e-05  7.08e-05  1.94e-03  2.03e-03  0.000   0.1
                              *** Initializing SOSCF ***
---------------------------------------S-O-S-C-F--------------------------------------
Iteration    Energy (Eh)           Delta-E    RMSDP     MaxDP     MaxGrad    Time(sec)
--------------------------------------------------------------------------------------
    7    -3073.1843447413589274    -9.71e-06  2.30e-05  3.18e-04  5.37e-04     0.1
               *** Restarting incremental Fock matrix formation ***
    8    -3073.1843454172353631    -6.76e-07  3.80e-05  7.86e-04  8.10e-05     0.1
    9    -3073.1843453469105043     7.03e-08  1.22e-05  1.85e-04  1.30e-04     0.1
   10    -3073.1843454823401771    -1.35e-07  5.02e-06  1.09e-04  1.33e-05     0.1
   11    -3073.1843454832260250    -8.86e-10  1.33e-06  2.43e-05  1.25e-05     0.1
                 **** Energy Check signals convergence ****

               *****************************************************
               *                     SUCCESS                       *
               *           SCF CONVERGED AFTER  11 CYCLES          *
               *****************************************************

             **** ENERGY FILE WAS UPDATED (SN2_scan_ts.en.tmp) ****

----------------
TOTAL SCF ENERGY
----------------

Total Energy       :      -3073.18434548322602 Eh          -83625.59748 eV

Components:
Nuclear Repulsion  :        182.51249263878145 Eh            4966.41741 eV
Electronic Energy  :      -3255.69683812200765 Eh          -88592.01490 eV
One Electron Energy:      -4647.24831385568905 Eh         -126458.05562 eV
Two Electron Energy:       1391.55147573368140 Eh           37866.04073 eV

Virial components:
Potential Energy   :      -6142.34041418893048 Eh         -167141.57998 eV
Kinetic Energy     :       3069.15606870570446 Eh           83515.98250 eV
Virial Ratio       :          2.00131250307490

DFT components:
N(Alpha)           :       31.000005160454 electrons
N(Beta)            :       31.000005160454 electrons
N(Total)           :       62.000010320909 electrons
E(X)               :     -123.054369523615 Eh       
E(C)               :       -2.698680668632 Eh       
E(XC)              :     -125.753050192246 Eh       

---------------
SCF CONVERGENCE
---------------

  Last Energy change         ...    8.8585e-10  Tolerance :   1.0000e-08
  Last MAX-Density change    ...    2.4330e-05  Tolerance :   1.0000e-07
  Last RMS-Density change    ...    1.3336e-06  Tolerance :   5.0000e-09
  Last DIIS Error            ...    5.3668e-04  Tolerance :   5.0000e-07
  Last Orbital Gradient      ...    1.2519e-05  Tolerance :   1.0000e-05
  Last Orbital Rotation      ...    1.1401e-05  Tolerance :   1.0000e-05


Total SCF time: 0 days 0 hours 0 min 1 sec 
Finished LeanSCF after   1.2 sec

Maximum memory used throughout the entire LEANSCF-calculation: 7.8 MB


           ************************************************************
           *        Program running with 4 parallel MPI-processes     *
           *              working on a common directory               *
           ************************************************************

------------------------------------------------------------------------------
                         ORCA PROPERTY INTEGRAL CALCULATIONS
------------------------------------------------------------------------------

GBWName                                   ... SN2_scan_ts.gbw
Number of atoms                           ...      6
Number of basis functions                 ...     79
Max core memory                           ...    750 MB

Dipole integrals                          ... YES
Quadrupole integrals                      ...  NO
Linear momentum integrals                 ...  NO
Angular momentum integrals                ...  NO
Higher moments length integrals           ...  NO
Higher moments velocity integrals         ...  NO
Kinetic energy integrals                  ...  NO
GIAO right hand sides                     ...  NO
GIAO dipole derivative integrals          ...  NO
SOC integrals                             ...  NO
EPR diamagnetic integrals (GIAO)          ...  NO
EPR gauge integrals                       ...  NO
Field gradient integrals                  ...  NO (   0 nuclei)
Spin-dipole/Fermi contact integrals       ...  NO (   0 nuclei)
Contact density integrals                 ...  NO (   0 nuclei)
Nucleus-orbit integrals                   ...  NO (   0 nuclei)
Geometric perturbations                   ...  NO (   6 nuclei)

Choice of electric origin   ... Center of mass
Position of electric origin ... ( -7.1237,  2.3532, -0.1357) 
Choice of magnetic origin   ... GIAO
Position of magnetic origin ... (  0.0000,  0.0000,  0.0000) 

Calculating integrals                     ... Electric Dipole (Length)     done (  0.0 sec)

Property integrals calculated in   0.0 sec

Maximum memory used throughout the entire PROPINT-calculation: 6.6 MB

-------------------------   --------------------
FINAL SINGLE POINT ENERGY     -3073.184345483226
-------------------------   --------------------



           ************************************************************
           *        Program running with 4 parallel MPI-processes     *
           *              working on a common directory               *
           ************************************************************
------------------------------------------------------------------------------
                         ORCA SCF GRADIENT CALCULATION
------------------------------------------------------------------------------

Nuc. rep. gradient        (SHARK) ... done (  0.0 sec)
HCore & Overlap gradient  (SHARK) ... done (  0.0 sec)
Split-RIJ-J gradient      (SHARK) ... done (  0.3 sec)
XC gradient                       ... done (  0.3 sec)

------------------
CARTESIAN GRADIENT
------------------

   1   C   :    0.018612446   -0.000718334   -0.002523048
   2   Br  :   -0.054510204    0.002144543    0.007368407
   3   H   :    0.012811589    0.002924685    0.000592279
   4   H   :    0.012470730   -0.004188629    0.000139646
   5   H   :    0.011836325   -0.000203081   -0.005749230
   6   Cl  :   -0.001220886    0.000040817    0.000171946

Difference to translation invariance:
           :   -0.0000000006   -0.0000000002    0.0000000000

Difference to rotation invariance:
           :   -0.0000129630    0.0000231090   -0.0000008643

Norm of the Cartesian gradient     ...    0.0624851957
RMS gradient                       ...    0.0147279019
MAX gradient                       ...    0.0545102044

-------
TIMINGS
-------

Total SCF gradient time     ....        0.533 sec

Densities                   ....       0.000 sec  (  0.0%)
One electron gradient       ....       0.016 sec  (  3.0%)
RI-J Coulomb gradient       ....       0.267 sec  ( 50.0%)
XC gradient                 ....       0.250 sec  ( 46.9%)

Maximum memory used throughout the entire SCFGRAD-calculation: 9.7 MB
------------------------------------------------------------------------------
                         ORCA GEOMETRY RELAXATION STEP
------------------------------------------------------------------------------

Reading the OPT-File                    .... done
Getting information on internals        .... done
Copying old internal coords+grads       .... done
Making the new internal coordinates     .... (2022 redundants) done
Validating the new internal coordinates .... (2022 redundants) done
Calculating the B-matrix                .... done
Calculating the G,G- and P matrices     .... done
Transforming gradient to internals      .... done
Projecting the internal gradient        .... done
Number of atoms                         ....   6
Number of internal coordinates          ....  17
Current Energy                          .... -3073.184345483 Eh
Current gradient norm                   ....     0.062485196 Eh/bohr
Maximum allowed component of the step   ....  0.300
Current trust radius                    ....  0.300
Updating the Hessian (BFGS)             .... done
Forming the augmented Hessian           .... done
Diagonalizing the augmented Hessian     .... done
Last element of RFO vector              ....  0.971389446
Lowest eigenvalues of augmented Hessian:
 -0.012224141  0.034354034  0.034354228  0.102406525  0.287061206
Length of the computed step             ....  0.244487108
The final length of the internal step   ....  0.244487108
Converting the step to Cartesian space:
 Initial RMS(Int)=    0.0592968336
Transforming coordinates:
 Iter   0:  RMS(Cart)=    0.0505638726 RMS(Int)=    0.0594808877
Imposing constraints:
 Iter   0:  RMS(Cart)=    0.0001609528 RMS(Int)=    0.0007359008
 Iter   5:  RMS(Cart)=    0.0000048631 RMS(Int)=    0.0000222350
 Iter  10:  RMS(Cart)=    0.0000001469 RMS(Int)=    0.0000006718
CONVERGED
done
Storing new coordinates                 .... done
The predicted energy change is          ....    -0.006477413
Previously predicted energy change      ....    -0.021341474
Actually observed energy change         ....    -0.025210533
Ratio of predicted to observed change   ....     1.181292985
New trust radius                        ....     0.450000000

                                .--------------------.
          ----------------------|Geometry convergence|-------------------------
          Item                value                   Tolerance       Converged
          ---------------------------------------------------------------------
          Energy change      -0.0252105330            0.0000050000      NO
          RMS gradient        0.0140483439            0.0001000000      NO
          MAX gradient        0.0550477491            0.0003000000      NO
          RMS step            0.0592968336            0.0020000000      NO
          MAX step            0.1622333277            0.0040000000      NO
          ........................................................
          Max(Bonds)      0.0859      Max(Angles)    2.33
          Max(Dihed)        0.00      Max(Improp)    0.00
          ---------------------------------------------------------------------

The optimization has not yet converged - more geometry cycles are needed


    ---------------------------------------------------------------------------
                         Redundant Internal Coordinates
                            (Angstroem and degrees)

        Definition                    Value    dE/dq     Step     New-Value
    ----------------------------------------------------------------------------
     1. B(Br  1,C   0)                1.8993 -0.055048  0.0859    1.9851   
     2. B(H   2,C   0)                1.0981  0.000395 -0.0013    1.0968   
     3. B(H   3,C   0)                1.0981  0.000397 -0.0013    1.0968   
     4. B(H   4,C   0)                1.0981  0.000395 -0.0013    1.0968   
     5. B(Cl  5,H   4)                2.9310  0.004345 -0.0445    2.8866   
     6. B(Cl  5,H   2)                2.9310  0.004343 -0.0445    2.8866   
     7. B(Cl  5,H   3)                2.9310  0.004324 -0.0441    2.8870   
     8. B(Cl  5,C   0)                3.0000 -0.010890 -0.0000    3.0000 C 
     9. A(H   2,C   0,H   3)          114.20  0.005478   -1.65    112.54   
    10. A(Br  1,C   0,H   4)          104.19 -0.006999    2.32    106.51   
    11. A(H   2,C   0,H   4)          114.20  0.005478   -1.65    112.54   
    12. A(H   3,C   0,H   4)          114.20  0.005480   -1.65    112.54   
    13. A(H   2,C   0,Cl  5)           75.81  0.007013   -2.33     73.48   
    14. A(H   3,C   0,Cl  5)           75.81  0.007003   -2.31     73.50   
    15. A(H   4,C   0,Cl  5)           75.81  0.007014   -2.33     73.48   
    16. A(Br  1,C   0,H   2)          104.19 -0.006990    2.32    106.51   
    17. A(Br  1,C   0,H   3)          104.19 -0.007042    2.33    106.52   
    ----------------------------------------------------------------------------

Geometry step timings:
Preparation and reading OPT file:      0.000 s (11.608 %)
Internal coordinates            :      0.000 s ( 2.950 %)
B/P matrices and projection     :      0.000 s (17.697 %)
Hessian update/contruction      :      0.000 s (17.697 %)
Making the step                 :      0.000 s ( 9.990 %)
Converting the step to Cartesian:      0.000 s ( 7.612 %)
Storing new data                :      0.000 s ( 5.043 %)
Checking convergence            :      0.000 s ( 1.332 %)
Final printing                  :      0.000 s (25.975 %)
Total time                      :      0.001 s

Time for energy+gradient        :      2.761 s
Time for complete geometry iter :      2.873 s

         *************************************************************
         *                GEOMETRY OPTIMIZATION CYCLE   3            *
         *************************************************************
---------------------------------
CARTESIAN COORDINATES (ANGSTROEM)
---------------------------------
  C     -4.101665    1.258306   -0.026909
  Br    -2.135930    1.180957   -0.292738
  H     -4.297160    2.141624    0.593110
  H     -4.384588    0.325835    0.476425
  H     -4.547441    1.343911   -1.025325
  Cl    -7.072366    1.376198    0.374386

----------------------------
CARTESIAN COORDINATES (A.U.)
----------------------------
  NO LB      ZA    FRAG     MASS         X           Y           Z
   0 C     6.0000    0    12.011   -7.751023    2.377854   -0.050851
   1 Br   35.0000    0    79.900   -4.036323    2.231685   -0.553194
   2 H     1.0000    0     1.008   -8.120455    4.047082    1.120816
   3 H     1.0000    0     1.008   -8.285671    0.615739    0.900313
   4 H     1.0000    0     1.008   -8.593418    2.539623   -1.937584
   5 Cl   17.0000    0    35.453  -13.364834    2.600637    0.707488

--------------------------------
INTERNAL COORDINATES (ANGSTROEM)
--------------------------------
 C      0   0   0     0.000000000000     0.00000000     0.00000000
 Br     1   0   0     1.985135062035     0.00000000     0.00000000
 H      1   2   0     1.096764558848   106.47443994     0.00000000
 H      1   2   3     1.096765163158   106.48521353   239.99791309
 H      1   2   3     1.096758449190   106.47612623   119.99721241
 Cl     5   1   2     2.887122896307    85.12345767   180.01926582

---------------------------
INTERNAL COORDINATES (A.U.)
---------------------------
 C      0   0   0     0.000000000000     0.00000000     0.00000000
 Br     1   0   0     3.751361606091     0.00000000     0.00000000
 H      1   2   0     2.072584649614   106.47443994     0.00000000
 H      1   2   3     2.072585791594   106.48521353   239.99791309
 H      1   2   3     2.072573104032   106.47612623   119.99721241
 Cl     5   1   2     5.455871588994    85.12345767   180.01926582



[...]
Geometric perturbations                   ... YES (   6 nuclei)

Choice of electric origin   ... Center of mass
Position of electric origin ... ( -6.7653,  2.3399, -0.1846) 
Choice of magnetic origin   ... GIAO
Position of magnetic origin ... (  0.0000,  0.0000,  0.0000) 

Calculating integrals                     ... Electric Dipole (Length)     done (  0.0 sec)
Calculating integrals                     ... Geometrical perturbation right hand sides

-----------------------
GEOMETRIC PERTURBATIONS (6 nuclei)
-----------------------

MaxCore                            ...    750 MB
Number of batches                  ...      1

BATCH   0: Atoms    0 -    5 ( 18 perturbations)
   => H(core) and overlap derivative integrals     ... done (     0.0 sec)
   => Making and storing internal U-coefficients   ... done (     0.0 sec)
   => RI-J derivative integrals                    ... done (     0.4 sec)
   => RI-J response operators                      ... done (     0.0 sec)
   => XC derivative integrals                      ... done (     2.3 sec)
   => XC response operators                        ... done (     0.6 sec)
   => Completing and storing right hand sides      ... done (     0.0 sec)
   => Total time for right hand sides =   3.4 sec

  geometrical perturbations done (  3.4 sec)

Property integrals calculated in   3.4 sec

Maximum memory used throughout the entire PROPINT-calculation: 12.4 MB

-------------------------   --------------------
FINAL SINGLE POINT ENERGY     -3073.193425594392
-------------------------   --------------------

                                *** OPTIMIZATION RUN DONE ***



           ************************************************************
           *        Program running with 4 parallel MPI-processes     *
           *              working on a common directory               *
           ************************************************************
------------------------------------------------------------------------------
                            ORCA SCF RESPONSE CALCULATION
------------------------------------------------------------------------------

GBWName                                 ... SN2_scan_ts.gbw
Number of atoms                         ...      6
Number of basis functions               ...     79
Max core memory                         ...    750 MB

Electric field perturbation             ...  NO
Quadrupolar field perturbation          ...  NO
Magnetic field perturbation (no GIAO)   ...  NO
Magnetic field perturbation (with GIAO) ...  NO
Linear momentum (velocity) perturbation ...  NO
Spin-orbit coupling perturbation        ...  NO
Choice of electric origin               ... Center of mass
Position of electric origin             ...    -6.765253     2.339887    -0.184603
Choice of magnetic origin               ... GIAO
Position of magnetic origin             ...     0.000000     0.000000     0.000000
Nuclear geometric perturbations         ... YES (  18 perturbations)
Nucleus-orbit perturbations             ...  NO (   0 perturbations)
Spin-dipole/Fermi contact perturbations ...  NO (   0 perturbations)

Total number of real perturbations      ...     18
Total number of imaginary perturbations ...      0
Total number of triplet perturbations   ...      0
Total number of SOC perturbations       ...      0

Using XC Grid                  ... (SN2_scan_ts.grid_cpscf.tmp) 
Recalculating density on grid  ... (SN2_scan_ts.grho_cpscf0.tmp) done
Calculating the xc-kernel      ... (SN2_scan_ts.fxc_cpscf0.tmp) done

                                **********************
                                * REAL PERTURBATIONS *
                                **********************



-------------------
SHARK CP-SCF DRIVER
-------------------

Dimension of the orbital basis          ...     79
Dimension of the CPSCF-problem          ...   1488
Number of operators                     ...      1
Max. number of iterations               ...    128
Max. DIIS space dimension               ...     20
Convergence Tolerance                   ... 1.0e-04
Number of perturbations                 ...     18
Perturbation type                       ... REAL

--------------------
DIIS EQUATION SOLVER
--------------------

  ITERATION   0:   ||err||_max =   1.2207e-01 (   0.2 sec   0/ 18 done)
  ITERATION   1:   ||err||_max =   9.9688e-02 (   0.2 sec   0/ 18 done)
  ITERATION   2:   ||err||_max =   1.8561e-02 (   0.2 sec   0/ 18 done)
  ITERATION   3:   ||err||_max =   7.7618e-03 (   0.2 sec   0/ 18 done)
  ITERATION   4:   ||err||_max =   1.8203e-03 (   0.2 sec   1/ 18 done)
  ITERATION   5:   ||err||_max =   5.1298e-04 (   0.2 sec   4/ 18 done)
  ITERATION   6:   ||err||_max =   2.4827e-04 (   0.2 sec  16/ 18 done)
  ITERATION   7:   ||err||_max =   7.8313e-05 (   0.1 sec  18/ 18 done)

CP-SCF equations solved in   1.7 sec
Response densities calculated in   0.0 sec

Maximum memory used throughout the entire SCFRESP-calculation: 7.6 MB


           ************************************************************
           *        Program running with 4 parallel MPI-processes     *
           *              working on a common directory               *
           ************************************************************

------------------------------------------------------------------------------
                              ORCA PROPERTY CALCULATIONS
------------------------------------------------------------------------------

GBWName                                 ... SN2_scan_ts.gbw
Number of atoms                         ...      6
Number of basis functions               ...     79
Max core memory                         ...    750 MB

Electric properties:
Dipole moment                           ... YES
Quadrupole moment                       ...  NO
Static polarizability (Dipole/Dipole)   ...  NO
Static polarizability (Dipole/Quad.)    ...  NO
Static polarizability (Quad./Quad.)     ...  NO
Static polarizability (Velocity)        ...  NO

Atomic electric properties:
Dipole moment                           ...  NO
Quadrupole moment                       ...  NO
Static polarizability                   ...  NO

Choice of electric origin               ... Center of mass
Position of electric origin             ...    -6.765253     2.339887    -0.184603

General magnetic properties:
Magnetizability                         ...  NO

EPR properties:
g-Tensor (aka g-matrix)                 ...  NO
Zero-Field splitting spin-orbit         ...  NO
Zero-field splitting spin-spin          ...  NO
Hyperfine couplings                     ...  NO (   0 nuclei)
Quadrupole couplings                    ...  NO (   0 nuclei)
Contact density                         ...  NO (   0 nuclei)

NMR properties:
Chemical shifts                         ...  NO (   0 nuclei)
Spin-rotation constants                 ...  NO (   0 nuclei)
Spin-spin couplings                     ...  NO (   0 nuclei,    0 pairs)

Choice of magnetic origin               ... GIAO
Position of magnetic origin             ...     0.000000     0.000000     0.000000

Properties with geometric perturbations:
SCF Hessian                             ... YES
IR spectrum                             ... YES
VCD spectrum                            ...  NO
X-ray spectroscopy properties:
SCF XES/XAS/RIXS spectra                ...  NO


-------------
DIPOLE MOMENT
-------------

Method             : SCF
Type of density    : Electron Density
Multiplicity       :   1
Irrep              :   0
Energy             : -3073.1934255943915559 Eh
Relativity type    : 
Basis              : AO
                                X                 Y                 Z
Electronic contribution:     14.647174907      -0.576058187      -1.980611362
Nuclear contribution   :    -12.827117927       0.503910378       1.734900263
                        -----------------------------------------
Total Dipole Moment    :      1.820056980      -0.072147809      -0.245711099
                        -----------------------------------------
Magnitude (a.u.)       :      1.837984402
Magnitude (Debye)      :      4.671785076



--------------------
Rotational spectrum 
--------------------
 
Rotational constants in cm-1:             4.726994             0.028510             0.028510 
Rotational constants in MHz :        141711.704882           854.695642           854.695373 

Dipole components along the rotational axes: 
x,y,z [a.u.] :    -1.837984     0.000178     0.000363 
x,y,z [Debye]:    -4.671785     0.000453     0.000922 

 

Dipole moment calculation done in   0.3 sec 

-----------
SCF HESSIAN
-----------

Occupied/Occupied contributions to the Hessian:
   => Occupied/Occupied contributions              ... done (  0.0 sec)
Perturbed density contributions to the Hessian:
   => Perturbed density contributions              ... done (  0.0 sec)
Explicit contributions to the Hessian:
   => Nuclear repulsion Hessian                    ... done (  0.0 sec)
   => HCore and overlap Hessian                    ... done (  0.2 sec)
   => RI-J Hessian                                 ... done (  0.5 sec)
   => XC-Hessian                                   ... done (  2.5 sec)
   => Explicit contributions done
Dipole derivatives                                 ... done (  0.0 sec)
Mass weighting the Hessian           ... done
Calculating normal modes             ... done
Scaling frequencies                  ... done

The first frequency considered to be a vibration is 7
The total number of vibrations considered is 11


--------------------------
THERMOCHEMISTRY AT 298.15K
--------------------------

Temperature         ...   298.15 K
Pressure            ...     1.00 atm
Total Mass          ...   130.39 AMU
Quasi RRHO          ...     True
Cut-Off Frequency   ...     1.00 cm^-1

Throughout the following assumptions are being made:
  (1) The electronic state is orbitally nondegenerate
  (2) There are no thermally accessible electronically excited states
  (3) Hindered rotations indicated by low frequency modes are not
      treated as such but are treated as vibrations and this may
      cause some error
  (4) All equations used are the standard statistical mechanics
      equations for an ideal gas
  (5) All vibrations are strictly harmonic

freq.     167.49  E(vib)   ...       0.38 
freq.     167.58  E(vib)   ...       0.38 
freq.     170.03  E(vib)   ...       0.38 
freq.     782.89  E(vib)   ...       0.05 
freq.     783.21  E(vib)   ...       0.05 
freq.     850.26  E(vib)   ...       0.04 
freq.    1306.67  E(vib)   ...       0.01 
freq.    1307.13  E(vib)   ...       0.01 
freq.    3111.40  E(vib)   ...       0.00 
freq.    3322.73  E(vib)   ...       0.00 
freq.    3322.77  E(vib)   ...       0.00 

------------
INNER ENERGY
------------

The inner energy is: U= E(el) + E(ZPE) + E(vib) + E(rot) + E(trans)
    E(el)   - is the total energy from the electronic structure calculation
              = E(kin-el) + E(nuc-el) + E(el-el) + E(nuc-nuc)
    E(ZPE)  - the the zero temperature vibrational energy from the frequency calculation
    E(vib)  - the the finite temperature correction to E(ZPE) due to population
              of excited vibrational states
    E(rot)  - is the rotational thermal energy
    E(trans)- is the translational thermal energy

Summary of contributions to the inner energy U:
Electronic energy                ...  -3073.19342559 Eh
Zero point energy                ...      0.03483814 Eh      21.86 kcal/mol
Thermal vibrational correction   ...      0.00208980 Eh       1.31 kcal/mol
Thermal rotational correction    ...      0.00141627 Eh       0.89 kcal/mol
Thermal translational correction ...      0.00141627 Eh       0.89 kcal/mol
-----------------------------------------------------------------------
Total thermal energy                  -3073.15366511 Eh


Summary of corrections to the electronic energy:
(perhaps to be used in another calculation)
Total thermal correction                  0.00492235 Eh       3.09 kcal/mol
Non-thermal (ZPE) correction              0.03483814 Eh      21.86 kcal/mol
-----------------------------------------------------------------------
Total correction                          0.03976048 Eh      24.95 kcal/mol


--------
ENTHALPY
--------

The enthalpy is H = U + kB*T
                kB is Boltzmann's constant
Total thermal energy              ...  -3073.15366511 Eh 
Thermal Enthalpy correction       ...      0.00094421 Eh       0.59 kcal/mol
-----------------------------------------------------------------------
Total Enthalpy                    ...  -3073.15272090 Eh


Note: Only C1 symmetry has been detected, increase convergence thresholds 
      if your molecule has a higher symmetry. Symmetry factor of 1.0 is   
      used for the rotational entropy correction. 
 

Note: Rotational entropy computed according to Herzberg 
Infrared and Raman Spectra, Chapter V,1, Van Nostrand Reinhold, 1945 
Point Group:  C1, Symmetry Number:   1  
Rotational constants in cm-1:     4.726994     0.028510     0.028510 

Vibrational entropy computed according to the QRRHO of S. Grimme
Chem.Eur.J. 2012 18 9955 using a reference frequency of 100.0 cm-1


-------
ENTROPY
-------

The entropy contributions are T*S = T*(S(el)+S(vib)+S(rot)+S(trans))
     S(el)   - electronic entropy
     S(vib)  - vibrational entropy
     S(rot)  - rotational entropy
     S(trans)- translational entropy
The entropies will be listed as multiplied by the temperature to get
units of energy

Electronic entropy                ...      0.00000000 Eh      0.00 kcal/mol
Vibrational entropy               ...      0.00379590 Eh      2.38 kcal/mol
Rotational entropy                ...      0.01213646 Eh      7.62 kcal/mol
Translational entropy             ...      0.01924704 Eh     12.08 kcal/mol
-----------------------------------------------------------------------
Final entropy term                ...      0.03517940 Eh     22.08 kcal/mol

In case the symmetry of your molecule has not been determined correctly
or in case you have a reason to use a different symmetry number we print 
out the resulting rotational entropy values for sn=1,12:

 non-linear molecules -----------------------------------
|  sn= 1 | S(rot)=       0.01213646 Eh      7.62 kcal/mol|
|  sn= 2 | S(rot)=       0.01148200 Eh      7.21 kcal/mol|
|  sn= 3 | S(rot)=       0.01109917 Eh      6.96 kcal/mol|
|  sn= 4 | S(rot)=       0.01082754 Eh      6.79 kcal/mol|
|  sn= 5 | S(rot)=       0.01061685 Eh      6.66 kcal/mol|
|  sn= 6 | S(rot)=       0.01044471 Eh      6.55 kcal/mol|
|  sn= 7 | S(rot)=       0.01029916 Eh      6.46 kcal/mol|
|  sn= 8 | S(rot)=       0.01017309 Eh      6.38 kcal/mol|
|  sn= 9 | S(rot)=       0.01006188 Eh      6.31 kcal/mol|
|  sn=10 | S(rot)=       0.00996240 Eh      6.25 kcal/mol|
|  sn=11 | S(rot)=       0.00987241 Eh      6.20 kcal/mol|
|  sn=12 | S(rot)=       0.00979025 Eh      6.14 kcal/mol|
 linear molecules ---------------------------------------
|  Dinfh | S(rot)=       0.00868474 Eh      5.45 kcal/mol|
|  Cinfv | S(rot)=       0.00933920 Eh      5.86 kcal/mol|
 --------------------------------------------------------


-------------------
GIBBS FREE ENERGY
-------------------

The Gibbs free energy is G = H - T*S

Total enthalpy                    ...  -3073.15272090 Eh 
Total entropy correction          ...     -0.03517940 Eh    -22.08 kcal/mol
-----------------------------------------------------------------------
Final Gibbs free energy         ...  -3073.18790030 Eh

For completeness - the Gibbs free energy minus the electronic energy
G-E(el)                           ...      0.00552529 Eh      3.47 kcal/mol


Maximum memory used throughout the entire PROP-calculation: 30.5 MB

--------------------------------
SUGGESTED CITATIONS FOR THIS RUN
--------------------------------

Below you find a list of papers that are relevant to this ORCA run
We neither can nor want to force you to cite these papers, but we appreciate if you do
You receive ORCA, which is the product of decades of hard work by many enthusiastic individuals, for free
The only thing we kindly ask in return is that you cite our papers,
We deeply appreciate it, if you show your appreciation for ORCA by not just citing the generic ORCA reference.

Please note that relegating all ORCA citations to the supporting information does *not* help us.
SI sections are not indexed - citations you put there will not count into any citation statistics
But we need these citations in order to attract the funding resources that allow us to do what we are doing

Therefore, if you are a happy ORCA user, please consider citing a few of the papers listed below in the main body of your paper

In addition to the list printed below, the program has created the file SN2_scan_ts.bibtex that contains the list in bibtex format
You can import this file easily into all common literature databanks and citation aid programs


List of essential papers. We consider these as the minimum necessary citations

  1. Neese,F.
     Software update: the ORCA program system, version 5.0
     WIRES Comput. Molec. Sci., 2022 12(1)e1606
     doi.org/10.1002/wcms.1606

List of papers to cite with high priority. The work reported in these papers was absolutely
necessary for this run to complete.
Our perspective: the developers of density functionals and basis sets usually get cited in chemistry papers
Good! But without the algorithms to do something with them, the functionals or basis sets would not do anything.
Hence, in our opinion, the algorithm design and method developments papers are equally worthy of getting cited

  1. Neese,F.
     An improvement of the resolution of the identity approximation for the formation of the Coulomb matrix
     J. Comp. Chem., 2003 24(14)1740-1747
     doi.org/10.1002/jcc.10318
  2. Bykov,D.; Petrenko,T.; Izsak,R.; Kossmann,S.; Becker,U.; Valeev,E.; Neese,F.
     Efficient implementation of the analytic second derivatives of Hartree-Fock and hybrid DFT energies: a detailed analysis of different approximations
     Molec. Phys., 2015 113 1961-1977
     doi.org/10.1080/00268976.2015.1025114
  3. Neese,F.
     The SHARK Integral Generation and Digestion System
     J. Comp. Chem., 2022  1-16
     doi.org/10.1002/jcc.26942

List of suggested additional citations. These are papers that are important in the 'surrounding' of 
of this run, or papers that preceded the highly important papers. If you like your results we are grateful for a citation.

  1. Neese,F.
     The ORCA program system
     WIRES Comput. Molec. Sci., 2012 2(1)73-78
     doi.org/10.1002/wcms.81
  2. Neese,F.
     Software update: the ORCA program system, version 4.0
     WIRES Comput. Molec. Sci., 2018 8(1)1-6
     doi.org/10.1002/wcms.1327
  3. Neese,F.; Wennmohs,F.; Becker,U.; Riplinger,C.
     The ORCA quantum chemistry program package
     J. Chem. Phys., 2020 152 Art. No. L224108
     doi.org/10.1063/5.0004608

List of optional additional citations

  1. Neese,F.
     Approximate second-order SCF convergence for spin unrestricted wavefunctions
     Chem. Phys. Lett., 2000 325(1-3)93-98
     doi.org/10.1016/s0009-2614(00)00662-x

Timings for individual modules:

Sum of individual times          ...      391.818 sec (=   6.530 min)
Startup calculation              ...       48.725 sec (=   0.812 min)  12.4 %
SCF iterations                   ...      163.915 sec (=   2.732 min)  41.8 %
Property integrals               ...       49.692 sec (=   0.828 min)  12.7 %
SCF Response                     ...       20.605 sec (=   0.343 min)   5.3 %
Property calculations            ...       37.129 sec (=   0.619 min)   9.5 %
SCF Gradient evaluation          ...       71.563 sec (=   1.193 min)  18.3 %
Geometry relaxation              ...        0.190 sec (=   0.003 min)   0.0 %
                             ****ORCA TERMINATED NORMALLY****
TOTAL RUN TIME: 0 days 0 hours 6 minutes 45 seconds 272 msec
