
                                 *****************
                                 * O   R   C   A *
                                 *****************

                                            #,                                       
                                            ###                                      
                                            ####                                     
                                            #####                                    
                                            ######                                   
                                           ########,                                 
                                     ,,################,,,,,                         
                               ,,#################################,,                 
                          ,,##########################################,,             
                       ,#########################################, ''#####,          
                    ,#############################################,,   '####,        
                  ,##################################################,,,,####,       
                ,###########''''           ''''###############################       
              ,#####''   ,,,,##########,,,,          '''####'''          '####       
            ,##' ,,,,###########################,,,                        '##       
           ' ,,###''''                  '''############,,,                           
         ,,##''                                '''############,,,,        ,,,,,,###''
      ,#''                                            '''#######################'''  
     '                                                          ''''####''''         
             ,#######,   #######,   ,#######,      ##                                
            ,#'     '#,  ##    ##  ,#'     '#,    #''#        ,####,   ,####,        
            ##       ##  ##   ,#'  ##            #'  '#       #'       #'  '#        
            ##       ##  #######   ##           ,######,      #####,   #    #        
            '#,     ,#'  ##    ##  '#,     ,#' ,#      #,     #,   #   #,  ,#        
             '#######'   ##     ##  '#######'  #'      '#     '####' # '####'        



                #########################################################
                #                        -***-                          #
                #          Department of theory and spectroscopy        #
                #                                                       #
                #                      Frank Neese                      #
                #                                                       #
                #     Directorship, Architecture, Infrastructure        #
                #                    SHARK, DRIVERS                     #
                #        Core code/Algorithms in most modules           #
                #                                                       #
                #        Max Planck Institute fuer Kohlenforschung      #
                #                Kaiser Wilhelm Platz 1                 #
                #                 D-45470 Muelheim/Ruhr                 #
                #                      Germany                          #
                #                                                       #
                #                  All rights reserved                  #
                #                        -***-                          #
                #########################################################


                         Program Version 6.0.1  -  RELEASE   -


 With contributions from (in alphabetic order):
[Max-Planck-Institut fuer Kohlenforschung]                               
  Daniel Aravena         : Magnetic Suceptibility                        
  Michael Atanasov       : Ab Initio Ligand Field Theory (pilot matlab implementation)
  Alexander A. Auer      : GIAO ZORA, VPT2 properties, NMR spectrum      
  Ute Becker             : All parallelization in ORCA, NUMFREQ, NUMCALC 
  Giovanni Bistoni       : ED, misc. LED, open-shell LED, HFLD           
  Martin Brehm           : Molecular dynamics                            
  Dmytro Bykov           : pre 5.0 version of the SCF Hessian            
  Marcos Casanova-Páez   : Triplet and SCS-CIS(D). UHF-(DLPNO)-IP/EA/STEOM-CCSD. UHF-CVS-IP/STEOM-CCSD   
  Vijay G. Chilkuri      : MRCI spin determinant printing, contributions to CSF-ICE 
  Pauline Colinet        : FMM embedding                                 
  Dipayan Datta          : RHF DLPNO-CCSD density                        
  Achintya Kumar Dutta   : EOM-CC, STEOM-CC                              
  Nicolas Foglia         : Exact transition moments, OPA infrastructure, MCD improvements    
  Dmitry Ganyushin       : Spin-Orbit,Spin-Spin,Magnetic field MRCI      
  Miquel Garcia-Rates    : C-PCM and meta-GGA Hessian, CCSD/C-PCM, Gaussian charge scheme 
  Tiago L. C. Gouveia    : GS-ROHF, GS-ROCIS                             
  Yang Guo               : DLPNO-NEVPT2, F12-NEVPT2, CIM, IAO-localization        
  Andreas Hansen         : Spin unrestricted coupled pair/coupled cluster methods 
  Ingolf Harden          : AUTO-CI MPn and infrastructure                
  Benjamin Helmich-Paris : MC-RPA, TRAH-(SCF,CASSCF), AVAS, COSX integrals, SCF dyn. polar. 
  Lee Huntington         : MR-EOM, pCC                                   
  Robert Izsak           : Overlap fitted RIJCOSX, COSX-SCS-MP3, EOM     
  Riya Kayal             : Wick's Theorem for AUTO-CI, AUTO-CI UHF-CCSDT 
  Emily Kempfer          : AUTO-CI, RHF CISDT and CCSDT                  
  Christian Kollmar      : KDIIS, OOCD, Brueckner-CCSD(T), CCSD density, CASPT2, CASPT2-K, improved NEVPT2 
  Axel Koslowski         : Symmetry handling                             
  Simone Kossmann        : meta-GGA functionals, TD-DFT gradient, OOMP2, (MP2 Hessian; deprecated post 5.0) 
  Lucas Lang             : DCDCAS                                        
  Marvin Lechner         : AUTO-CI (C++ implementation), FIC-MRCC        
  Spencer Leger          : CASSCF response                               
  Dagmar Lenk            : GEPOL surface, SMD, ORCA-2-JSON               
  Dimitrios Liakos       : Extrapolation schemes; Compound Job, initial MDCI parallelization 
  Dimitrios Manganas     : Further ROCIS development; embedding schemes. LFT, Crystal Embedding 
  Dimitrios Pantazis     : SARC Basis sets                               
  Anastasios Papadopoulos: AUTO-CI, single reference methods and gradients 
  Taras Petrenko         : pre 6.0 DFT Hessian and TD-DFT gradient, (ASA, deprecated), ECA, 1-Electron XAS/XES, NRVS 
  Peter Pinski           : DLPNO-MP2, DLPNO-MP2 Gradient                 
  Christoph Reimann      : Effective Core Potentials                     
  Marius Retegan         : Local ZFS, SOC                                
  Christoph Riplinger    : Optimizer, TS searches, QM/MM, DLPNO-CCSD(T), (RO)-DLPNO pert. Triples 
  Michael Roemelt        : Original ROCIS implementation                 
  Masaaki Saitow         : Open-shell DLPNO-CCSD energy and density      
  Barbara Sandhoefer     : DKH picture change effects                    
  Kantharuban Sivalingam : CASSCF convergence/infrastructure, NEVPT2 and variants, FIC-MRCI 
  Bernardo de Souza      : ESD, SOC TD-DFT                               
  Georgi L. Stoychev     : AutoAux, RI-MP2 NMR, DLPNO-MP2 response, X2C  
  Van Anh Tran           : RI-MP2 g-tensors                              
  Willem Van den Heuvel  : Paramagnetic NMR                              
  Zikuan Wang            : NOTCH, Electric field optimization            
  Frank Wennmohs         : Technical directorship and infrastructure     
  Hang Xu                : AUTO-CI-Response properties                   
                                                                         
[FACCTs GmbH]                                                            
  Markus Bursch, Miquel Garcia-Rates, Christoph Riplinger, Bernardo de Souza, Georgi L. Stoychev 
                                                                 
  APM, Basis sets (HGBS, AHGBS, def-TZVP (Ac-Lr), def2-XVPD (La-Lu)), CI-OPT, improved COSX, DLPNO-Multilevel,           
  DOCKER, DRACO, updates on ESD, GOAT, IRC, LR-CPCM, MBIS, meta-GGA TD-DFT gradient, ML-optimized integration grids, 
  MM, NACMEs, nearIR, NEB, NEB-TS, NL-DFT gradient (VV10), 2- and 3-layer-ONIOM, interface openCOSMO-RS, QMMM,   
  Crystal-QMMM, SF, symmetry and pop. for TD-DFT, r2SCAN hybrids, SOLVATOR                                   
                                                                         
[Other institutions]                                                     
  V. Asgeirsson          : NEB                                           
  Christoph Bannwarth    : sTDA-DFT, sTD-DFT, PBEh-3c, B97-3c, D3        
  Sebastian Ehlert       : rSCAN, r2SCAN, r2SCAN-3c, D4, dhf basis sets  
  Marvin Friede          : D4 for Fr, Ra, Ac-Lr                          
  Lars Goerigk           : TD-DFT with DH, B97 family of functionals     
  Stefan Grimme          : VdW corrections, initial TS optimization, DFT functionals, gCP, sTDA/sTD-DF 
  Waldemar Hujo          : DFT-NL                                        
  H. Jonsson             : NEB                                           
  Holger Kruse           : gCP                                           
  Marcel Mueller         : wB97X-3c, vDZP basis set                      
  Hagen Neugebauer       : wr2SCAN                                       
  Tobias Risthaus        : range-separated hybrid DFT                    
  Lukas Wittmann         : regularized MP2, r2SCAN double-hybrids, wr2SCAN        
                                                                         
We gratefully acknowledge several colleagues who have allowed us to      
interface, adapt or use parts of their codes:                            
  Ed Valeev, F. Pavosevic, A. Kumar             : LibInt (2-el integral package), F12 methods 
  Garnet Chan, S. Sharma, J. Yang, R. Olivares  : DMRG                   
  Ulf Ekstrom                                   : XCFun DFT Library      
  Mihaly Kallay                                 : mrcc  (arbitrary order and MRCC methods)
  Frank Weinhold                                : gennbo (NPA and NBO analysis)           
  Simon Mueller                                 : openCOSMO-RS                            
  Christopher J. Cramer and Donald G. Truhlar   : smd solvation model                     
  S Lehtola, MJT Oliveira, MAL Marques          : LibXC Library                           
  Liviu Ungur et al                             : ANISO software                          


 Your calculation uses the libint2 library for the computation of 2-el integrals
 For citations please refer to: http://libint.valeyev.net

 Your ORCA version has been built with support for libXC version: 6.2.2
 For citations please refer to: https://libxc.gitlab.io

 This ORCA versions uses:
   CBLAS   interface :  Fast vector & matrix operations
   LAPACKE interface :  Fast linear algebra routines
   SCALAPACK package :  Parallel linear algebra routines
   Shared memory     :  Shared parallel matrices
   BLAS/LAPACK       :  OpenBLAS 0.3.27  USE64BITINT DYNAMIC_ARCH NO_AFFINITY Haswell SINGLE_THREADED
        Core in use  :  Haswell
   Copyright (c) 2011-2014, The OpenBLAS Project


NOTE: MaxCore=350 MB was set to SCF,MP2,MDCI,CIPSI,MRCI and CIS
      => If you want to overwrite this, your respective input block should be placed after the MaxCore statement
================================================================================

----- Orbital basis set information -----
Your calculation utilizes the basis: def2-SVP
   F. Weigend and R. Ahlrichs, Phys. Chem. Chem. Phys. 7, 3297 (2005).

----- AuxJ basis set information -----
Your calculation utilizes the auxiliary basis: def2/J
   F. Weigend, Phys. Chem. Chem. Phys. 8, 1057 (2006).

================================================================================
                                        WARNINGS
                       Please study these warnings very carefully!
================================================================================



WARNING: Found flag for RIJCOSX approximation but no HF exchange needed!
  ===> : RIJCOSX  will be disabled and Split-RI-J is turned on

WARNING: Geometry Optimization
  ===> : Switching off AutoStart
         For restart on a previous wavefunction, please use MOREAD

================================================================================
                                       INPUT FILE
================================================================================
NAME = water_scan.inp
|  1> %pal
|  2>   nprocs 4
|  3> end
|  4> 
|  5> %maxcore 350
|  6> 
|  7> ! PBE def2-SVP 
|  8> ! RIJCOSX def2/J
|  9> ! Opt 
| 10> 
| 11> %geom 
| 12>   scan 
| 13>     B 0 1 = 0.8, 1.5, 10
| 14>   end
| 15> end
| 16> 
| 17> * xyz 0 1
| 18> O       -3.21035       -0.58504       -0.01395
| 19> H       -2.24247       -0.61827        0.01848
| 20> H       -3.48920       -1.24911        0.63429
| 21> *
| 22> 
| 23> 
| 24>                          ****END OF INPUT****
================================================================================

                       ******************************
                       *    Relaxed Surface Scan    *
                       ******************************

                      Bond (  1,   0):   range=   0.80000000 ..   1.50000000  steps =   10

There is 1 parameter to be scanned.
There will be   10 constrained geometry optimizations.


         *************************************************************
         *               RELAXED SURFACE SCAN STEP   1               *
         *                                                           *
         *                 Bond (  1,   0)  :   0.80000000           *
         *************************************************************

Geometry optimization settings:
Update method            Update   .... BFGS
Choice of coordinates    CoordSys .... (2022) Redundant Internals
Initial Hessian          InHess   .... Almloef's Model
Max. no of cycles        MaxIter  .... 50

Convergence Tolerances:
Energy Change            TolE     ....  5.0000e-06 Eh
Max. Gradient            TolMAXG  ....  3.0000e-04 Eh/bohr
RMS Gradient             TolRMSG  ....  1.0000e-04 Eh/bohr
Max. Displacement        TolMAXD  ....  4.0000e-03 bohr
RMS Displacement         TolRMSD  ....  2.0000e-03 bohr
Strict Convergence                .... False

------------------------------------------------------------------------------
                        ORCA OPTIMIZATION COORDINATE SETUP
------------------------------------------------------------------------------

The optimization will be done in redundant internal coordinates (2022)
Making redundant internal coordinates   ...  (2022 redundants) done
Evaluating the initial hessian          ...  (Almloef) done
Evaluating the coordinates              ...  done
Calculating the B-matrix                .... done
Calculating the G-matrix                .... done
Diagonalizing the G-matrix              .... done
The first mode is                       ....    0
The number of degrees of freedom        ....    3
Storing new coordinates                 .... done

    -----------------------------------------------------------------
                    Redundant Internal Coordinates


    -----------------------------------------------------------------
         Definition                    Initial Value    Approx d2E/dq
    -----------------------------------------------------------------
      1. B(H   1,O   0)                  0.8000         0.503059 C 
      2. B(H   2,O   0)                  0.9697         0.503046   
      3. A(H   1,O   0,H   2)          103.5169         0.318376   
    -----------------------------------------------------------------

Number of atoms                         .... 3
Number of degrees of freedom            .... 3


         *************************************************************
         *                GEOMETRY OPTIMIZATION CYCLE   1            *
         *************************************************************
---------------------------------
CARTESIAN COORDINATES (ANGSTROEM)
---------------------------------
  O     -3.141479   -0.580746   -0.018142
  H     -2.345004   -0.634428    0.034254
  H     -3.455537   -1.237246    0.622708

----------------------------
CARTESIAN COORDINATES (A.U.)
----------------------------
  NO LB      ZA    FRAG     MASS         X           Y           Z
   0 O     8.0000    0    15.999   -5.936535   -1.097451   -0.034283
   1 H     1.0000    0     1.008   -4.431415   -1.198896    0.064730
   2 H     1.0000    0     1.008   -6.530018   -2.338055    1.176748

--------------------------------
INTERNAL COORDINATES (ANGSTROEM)
--------------------------------
 O      0   0   0     0.000000000000     0.00000000     0.00000000
 H      1   0   0     0.968993102246     0.00000000     0.00000000
 H      1   2   0     0.969000198658   103.97800340     0.00000000

---------------------------
INTERNAL COORDINATES (A.U.)
---------------------------
 O      0   0   0     0.000000000000     0.00000000     0.00000000
 H      1   0   0     1.831131588903     0.00000000     0.00000000
 H      1   2   0     1.831144999180   103.97800340     0.00000000

---------------------
BASIS SET INFORMATION
---------------------
There are 2 groups of distinct atoms

 Group   1 Type O   : 7s4p1d contracted to 3s2p1d pattern {511/31/1}
 Group   2 Type H   : 4s1p contracted to 2s1p pattern {31/1}

Atom   0O    basis set group =>   1
Atom   1H    basis set group =>   2
Atom   2H    basis set group =>   2
---------------------------------
AUXILIARY/J BASIS SET INFORMATION
---------------------------------
There are 2 groups of distinct atoms

 Group   1 Type O   : 12s5p4d2f1g contracted to 6s4p3d1f1g pattern {711111/2111/211/2/1}
 Group   2 Type H   : 5s2p1d contracted to 3s1p1d pattern {311/2/1}

Atom   0O    basis set group =>   1
Atom   1H    basis set group =>   2
Atom   2H    basis set group =>   2


           ************************************************************
           *        Program running with 4 parallel MPI-processes     *
           *              working on a common directory               *
           ************************************************************
------------------------------------------------------------------------------
                             ORCA STARTUP CALCULATIONS
                           -- RI-GTO INTEGRALS CHOSEN --
------------------------------------------------------------------------------
------------------------------------------------------------------------------
                   ___                                                        
                  /   \      - P O W E R E D   B Y -                         
                 /     \                                                     
                 |  |  |   _    _      __       _____    __    __             
                 |  |  |  | |  | |    /  \     |  _  \  |  |  /  |          
                  \  \/   | |  | |   /    \    | | | |  |  | /  /          
                 / \  \   | |__| |  /  /\  \   | |_| |  |  |/  /          
                |  |  |   |  __  | /  /__\  \  |    /   |      \           
                |  |  |   | |  | | |   __   |  |    \   |  |\   \          
                \     /   | |  | | |  |  |  |  | |\  \  |  | \   \       
                 \___/    |_|  |_| |__|  |__|  |_| \__\ |__|  \__/        
                                                                              
                      - O R C A' S   B I G   F R I E N D -                    
                                      &                                       
                       - I N T E G R A L  F E E D E R -                       
                                                                              
 v1 FN, 2020, v2 2021, v3 2022-2024                                           
------------------------------------------------------------------------------


----------------------
SHARK INTEGRAL PACKAGE
----------------------

Number of atoms                             ...      3
Number of basis functions                   ...     24
Number of shells                            ...     12
Maximum angular momentum                    ...      2
Integral batch strategy                     ... SHARK/LIBINT Hybrid
RI-J (if used) integral strategy            ... SPLIT-RIJ (Revised 2003 algorithm where possible)
Printlevel                                  ...      1
Contraction scheme used                     ... SEGMENTED contraction
Prescreening option                         ... SCHWARTZ
   Thresh                                   ... 2.500e-11
   Tcut                                     ... 2.500e-12
   Tpresel                                  ... 2.500e-12 
Coulomb Range Separation                    ... NOT USED
Exchange Range Separation                   ... NOT USED
Multipole approximations                    ... NOT USED
Finite Nucleus Model                        ... NOT USED
CABS basis                                  ... NOT available
Auxiliary Coulomb fitting basis             ... AVAILABLE
   # of basis functions in Aux-J            ...     71
   # of shells in Aux-J                     ...     25
   Maximum angular momentum in Aux-J        ...      4
Auxiliary J/K fitting basis                 ... NOT available
Auxiliary Correlation fitting basis         ... NOT available
Auxiliary 'external' fitting basis          ... NOT available

Checking pre-screening integrals            ... done (  0.0 sec) Dimension = 12
Check shell pair data                       ... done (  0.0 sec)
Shell pair information
Shell pair cut-off parameter TPreSel        ...   2.5e-12
Total number of shell pairs                 ...        78
Shell pairs after pre-screening             ...        78
Total number of primitive shell pairs       ...       272
Primitive shell pairs kept                  ...       266
          la=0 lb=0:     28 shell pairs
          la=1 lb=0:     28 shell pairs
          la=1 lb=1:     10 shell pairs
          la=2 lb=0:      7 shell pairs
          la=2 lb=1:      4 shell pairs
          la=2 lb=2:      1 shell pairs

Calculating one electron integrals          ... done (  0.0 sec)
Calculating RI/J V-Matrix + Cholesky decomp.... done (  0.0 sec)
Calculating Nuclear repulsion               ... done (  0.0 sec) ENN=     10.037120990585 Eh

Diagonalization of the overlap matrix:
Smallest eigenvalue                        ... 3.003e-02
Time for diagonalization                   ...    0.000 sec
Threshold for overlap eigenvalues          ... 1.000e-07
Number of eigenvalues below threshold      ... 0
Time for construction of square roots      ...    0.000 sec
Total time needed                          ...    0.001 sec

-------------------
DFT GRID GENERATION
-------------------

General Integration Accuracy     IntAcc      ... 4.388
Radial Grid Type                 RadialGrid  ... OptM3 with GC (2021)
Angular Grid (max. ang.)         AngularGrid ... 4 (Lebedev-302)
Angular grid pruning method      GridPruning ... 4 (adaptive)
Weight generation scheme         WeightScheme... mBecke (2022)
Basis function cutoff            BFCut       ... 1.0000e-11
Integration weight cutoff        WCut        ... 1.0000e-14
Partially contracted basis set               ... off
Rotationally invariant grid construction     ... off
Angular grids for H and He will be reduced by one unit

Total number of grid points                  ...    12734
Total number of batches                      ...      201
Average number of points per batch           ...       63
Average number of grid points per atom       ...     4245
Initializing property integral containers    ... done (  0.0 sec)

SHARK setup successfully completed in   0.1 seconds

Maximum memory used throughout the entire STARTUP-calculation: 8.7 MB


           ************************************************************
           *        Program running with 4 parallel MPI-processes     *
           *              working on a common directory               *
           ************************************************************
-------------------------------------------------------------------------------
                                 ORCA GUESS
                   Start orbitals & Density for SCF / CASSCF
-------------------------------------------------------------------------------

------------
SCF SETTINGS
------------
Hamiltonian:
 Density Functional     Method          .... DFT(GTOs)
 Exchange Functional    Exchange        .... PBE
   PBE kappa parameter   XKappa         ....  0.804000
   PBE mue parameter    XMuePBE         ....  0.219520
 Correlation Functional Correlation     .... PBE
   PBE beta parameter  CBetaPBE         ....  0.066725
 LDA part of GGA corr.  LDAOpt          .... PW91-LDA
 Gradients option       PostSCFGGA      .... off
   NL short-range parameter             ....  6.400000
 RI-approximation to the Coulomb term is turned on
   Number of AuxJ basis functions       .... 71


General Settings:
 Integral files         IntName         .... water_scan
 Hartree-Fock type      HFTyp           .... RHF
 Total Charge           Charge          ....    0
 Multiplicity           Mult            ....    1
 Number of Electrons    NEL             ....   10
 Basis Dimension        Dim             ....   24
 Nuclear Repulsion      ENuc            ....     10.0371209906 Eh

Convergence Acceleration:
 AO-DIIS                CNVDIIS         .... on
   Start iteration      DIISMaxIt       ....    12
   Startup error        DIISStart       ....  0.200000
   # of expansion vecs  DIISMaxEq       ....     5
   Bias factor          DIISBfac        ....   1.050
   Max. coefficient     DIISMaxC        ....  10.000
 MO-DIIS                CNVKDIIS        .... off
 Trust-Rad. Augm. Hess. CNVTRAH         .... auto
   Auto Start mean grad. ratio tolernc. ....  1.125000
   Auto Start start iteration           ....    50
   Auto Start num. interpolation iter.  ....    10
   Max. Number of Micro iterations      ....    24
   Max. Number of Macro iterations      .... Maxiter - #DIIS iter
   Number of Davidson start vectors     ....     2
   Converg. threshold    (grad. norm)   ....   1.000e-05
   Grad. Scal. Fac. for Micro threshold ....   0.100
   Minimum threshold for Micro iter.    ....   1.000e-02
   NR start threshold (gradient norm)   ....   1.000e-04
   Initial trust radius                 ....   0.400
   Minimum AH scaling param. (alpha)    ....   1.000
   Maximum AH scaling param. (alpha)    .... 1000.000
   Quad. conv. algorithm                .... NR
   White noise on init. David. guess    .... on
   Maximum white noise                  ....   0.010
   Pseudo random numbers                .... off
   Inactive MOs                         .... canonical
   Orbital update algorithm             .... Taylor
   Preconditioner                       .... Diag
   Full preconditioner red. dimension   ....   250
 SOSCF                  CNVSOSCF        .... on
   Start iteration      SOSCFMaxIt      ....   150
   Startup grad/error   SOSCFStart      ....  0.003300
   Hessian update       SOSCFHessUp     .... L-BFGS
 Level Shifting         CNVShift        .... on
   Level shift para.    LevelShift      ....    0.2500
   Turn off err/grad.   ShiftErr        ....    0.0010
 Zerner damping         CNVZerner       .... off
 Static damping         CNVDamp         .... on
   Fraction old density DampFac         ....    0.7000
   Max. Damping (<1)    DampMax         ....    0.9800
   Min. Damping (>=0)   DampMin         ....    0.0000
   Turn off err/grad.   DampErr         ....    0.1000

SCF Procedure:
 Maximum # iterations   MaxIter         ....   125
 SCF integral mode      SCFMode         .... Direct
   Integral package                     .... SHARK and LIBINT hybrid scheme
 Reset frequency        DirectResetFreq ....    20
 Integral Threshold     Thresh          ....  2.500e-11 Eh
 Primitive CutOff       TCut            ....  2.500e-12 Eh

Convergence Tolerance:
 Convergence Check Mode ConvCheckMode   .... Total+1el-Energy
 Convergence forced     ConvForced      .... 0
 Energy Change          TolE            ....  1.000e-08 Eh
 1-El. energy change                    ....  1.000e-05 Eh
 Orbital Gradient       TolG            ....  1.000e-05
 Orbital Rotation angle TolX            ....  1.000e-05
 DIIS Error             TolErr          ....  5.000e-07

------------------------------
INITIAL GUESS: MODEL POTENTIAL
------------------------------
Loading Hartree-Fock densities                     ... done
Calculating cut-offs                               ... done
Initializing the effective Hamiltonian             ... done
Setting up the integral package (SHARK)            ... done
Starting the Coulomb interaction                   ... done (   0.0 sec)
Making the grid                                    ... done (   0.0 sec)
Mapping shells                                     ... done
Starting the XC term evaluation                    ... done (   0.0 sec)
  promolecular density results
     # of electrons  =      9.998972120
     EX              =     -8.768791228
     EC              =     -0.319012740
     EX+EC           =     -9.087803967
Transforming the Hamiltonian                       ... done (   0.0 sec)
Diagonalizing the Hamiltonian                      ... done (   0.0 sec)
Back transforming the eigenvectors                 ... done (   0.0 sec)
Now organizing SCF variables                       ... done
                      ------------------
                      INITIAL GUESS DONE (   0.0 sec)
                      ------------------
             **** ENERGY FILE WAS UPDATED (water_scan.en.tmp) ****
Finished Guess after   0.1 sec
Maximum memory used throughout the entire GUESS-calculation: 5.4 MB


           ************************************************************
           *        Program running with 4 parallel MPI-processes     *
           *              working on a common directory               *
           ************************************************************

-------------------------------------------------------------------------------------------
                                      ORCA LEAN-SCF
                              memory conserving SCF solver
-------------------------------------------------------------------------------------------

----------------------------------------D-I-I-S--------------------------------------------
Iteration    Energy (Eh)           Delta-E    RMSDP     MaxDP     DIISErr   Damp  Time(sec)
-------------------------------------------------------------------------------------------
               ***  Starting incremental Fock matrix formation  ***
    1    -76.1290083777224282     0.00e+00  1.44e-02  9.98e-02  3.18e-01  0.700   0.0
    2    -76.1801380867464530    -5.11e-02  7.80e-03  5.37e-02  1.22e-01  0.700   0.0
                               ***Turning on AO-DIIS***
    3    -76.1958797500528817    -1.57e-02  1.87e-03  1.10e-02  1.94e-02  0.700   0.0
    4    -76.2062080779831206    -1.03e-02  2.05e-03  1.33e-02  5.06e-03  0.000   0.0
    5    -76.2304489890302932    -2.42e-02  7.63e-04  4.51e-03  6.22e-03  0.000   0.0
                              *** Initializing SOSCF ***
---------------------------------------S-O-S-C-F--------------------------------------
Iteration    Energy (Eh)           Delta-E    RMSDP     MaxDP     MaxGrad    Time(sec)
--------------------------------------------------------------------------------------
    6    -76.2305220424971139    -7.31e-05  2.46e-04  1.68e-03  1.00e-03     0.0
               *** Restarting incremental Fock matrix formation ***
    7    -76.2305262757496962    -4.23e-06  1.66e-04  1.29e-03  3.20e-04     0.0
    8    -76.2305267030352809    -4.27e-07  4.16e-05  2.91e-04  1.95e-04     0.0
    9    -76.2305267928648647    -8.98e-08  3.19e-05  1.81e-04  1.38e-04     0.0
   10    -76.2305268520348847    -5.92e-08  6.47e-06  4.18e-05  1.59e-05     0.0
   11    -76.2305268541116590    -2.08e-09  1.84e-06  1.29e-05  7.40e-06     0.0
                 **** Energy Check signals convergence ****

               *****************************************************
               *                     SUCCESS                       *
               *           SCF CONVERGED AFTER  11 CYCLES          *
               *****************************************************

             **** ENERGY FILE WAS UPDATED (water_scan.en.tmp) ****

----------------
TOTAL SCF ENERGY
----------------

Total Energy       :        -76.23052685411166 Eh           -2074.33809 eV

Components:
Nuclear Repulsion  :         10.03712099058461 Eh             273.12395 eV
Electronic Energy  :        -86.26764784469626 Eh           -2347.46204 eV
One Electron Energy:       -124.49632634168262 Eh           -3387.71727 eV
Two Electron Energy:         38.22867849698635 Eh            1040.25523 eV

Virial components:
Potential Energy   :       -152.38628607386249 Eh           -4146.64166 eV
Kinetic Energy     :         76.15575921975083 Eh            2072.30356 eV
Virial Ratio       :          2.00098177255571

DFT components:
N(Alpha)           :        4.999999584318 electrons
N(Beta)            :        4.999999584318 electrons
N(Total)           :        9.999999168636 electrons
E(X)               :       -9.015415170046 Eh       
E(C)               :       -0.334208583938 Eh       
E(XC)              :       -9.349623753984 Eh       

---------------
SCF CONVERGENCE
---------------

  Last Energy change         ...    2.0768e-09  Tolerance :   1.0000e-08
  Last MAX-Density change    ...    1.2907e-05  Tolerance :   1.0000e-07
  Last RMS-Density change    ...    1.8366e-06  Tolerance :   5.0000e-09
  Last DIIS Error            ...    1.0015e-03  Tolerance :   5.0000e-07
  Last Orbital Gradient      ...    7.4035e-06  Tolerance :   1.0000e-05
  Last Orbital Rotation      ...    5.7859e-06  Tolerance :   1.0000e-05


----------------
ORBITAL ENERGIES
----------------

  NO   OCC          E(Eh)            E(eV) 
   0   2.0000     -18.722790      -509.4730 
   1   2.0000      -0.932309       -25.3694 
   2   2.0000      -0.483703       -13.1622 
   3   2.0000      -0.310830        -8.4581 
   4   2.0000      -0.235580        -6.4105 
   5   0.0000       0.039519         1.0754 
   6   0.0000       0.129032         3.5111 
   7   0.0000       0.527880        14.3643 
   8   0.0000       0.716461        19.4959 
   9   0.0000       0.864052        23.5120 
  10   0.0000       0.867060        23.5939 
  11   0.0000       0.973338        26.4859 
  12   0.0000       1.056704        28.7544 
  13   0.0000       1.314985        35.7826 
  14   0.0000       1.340058        36.4648 
  15   0.0000       1.508624        41.0518 
*Only the first 10 virtual orbitals were printed.

                    ********************************
                    * MULLIKEN POPULATION ANALYSIS *
                    ********************************

-----------------------
MULLIKEN ATOMIC CHARGES
-----------------------
   0 O :   -0.191229
   1 H :    0.055945
   2 H :    0.135285
Sum of atomic charges:   -0.0000000

--------------------------------
MULLIKEN REDUCED ORBITAL CHARGES
--------------------------------
  0 O s       :     3.579696  s :     3.579696
      pz      :     1.672451  p :     4.597237
      px      :     1.265886
      py      :     1.658900
      dz2     :     0.002592  d :     0.014296
      dxz     :     0.001231
      dyz     :     0.003083
      dx2y2   :     0.006132
      dxy     :     0.001258

  1 H s       :     0.851879  s :     0.851879
      pz      :     0.029325  p :     0.092177
      px      :     0.033635
      py      :     0.029217

  2 H s       :     0.792996  s :     0.792996
      pz      :     0.025912  p :     0.071719
      px      :     0.019620
      py      :     0.026187



                     *******************************
                     * LOEWDIN POPULATION ANALYSIS *
                     *******************************

----------------------
LOEWDIN ATOMIC CHARGES
----------------------
   0 O :   -0.039950
   1 H :   -0.046448
   2 H :    0.086397

-------------------------------
LOEWDIN REDUCED ORBITAL CHARGES
-------------------------------
  0 O s       :     3.324310  s :     3.324310
      pz      :     1.647522  p :     4.688325
      px      :     1.402983
      py      :     1.637819
      dz2     :     0.004579  d :     0.027316
      dxz     :     0.001552
      dyz     :     0.006027
      dx2y2   :     0.013530
      dxy     :     0.001628

  1 H s       :     0.770983  s :     0.770983
      pz      :     0.086378  p :     0.275464
      px      :     0.103509
      py      :     0.085577

  2 H s       :     0.744360  s :     0.744360
      pz      :     0.067700  p :     0.169242
      px      :     0.033134
      py      :     0.068409



                      *****************************
                      * MAYER POPULATION ANALYSIS *
                      *****************************

  NA   - Mulliken gross atomic population
  ZA   - Total nuclear charge
  QA   - Mulliken gross atomic charge
  VA   - Mayer's total valence
  BVA  - Mayer's bonded valence
  FA   - Mayer's free valence

  ATOM       NA         ZA         QA         VA         BVA        FA
  0 O      8.1912     8.0000    -0.1912     2.0858     2.0858    -0.0000
  1 H      0.9441     1.0000     0.0559     1.0844     1.0844    -0.0000
  2 H      0.8647     1.0000     0.1353     1.0215     1.0215     0.0000

  Mayer bond orders larger than 0.100000
B(  0-O ,  1-H ) :   1.0743 B(  0-O ,  2-H ) :   1.0115 

-------
TIMINGS
-------

Total SCF time: 0 days 0 hours 0 min 0 sec 

Total time                  ....       0.248 sec
Sum of individual times     ....       0.235 sec  ( 95.1%)

SCF preparation             ....       0.059 sec  ( 23.8%)
Fock matrix formation       ....       0.140 sec  ( 56.4%)
  Startup                   ....       0.003 sec  (  2.1% of F)
  Split-RI-J                ....       0.018 sec  ( 13.0% of F)
  XC integration            ....       0.107 sec  ( 77.0% of F)
    Basis function eval.    ....       0.025 sec  ( 23.2% of XC)
    Density eval.           ....       0.009 sec  (  8.2% of XC)
    XC-Functional eval.     ....       0.020 sec  ( 18.2% of XC)
    XC-Potential eval.      ....       0.007 sec  (  6.9% of XC)
Diagonalization             ....       0.000 sec  (  0.0%)
Density matrix formation    ....       0.004 sec  (  1.6%)
Total Energy calculation    ....       0.004 sec  (  1.7%)
Population analysis         ....       0.004 sec  (  1.4%)
Orbital Transformation      ....       0.003 sec  (  1.1%)
Orbital Orthonormalization  ....       0.000 sec  (  0.0%)
DIIS solution               ....       0.016 sec  (  6.3%)
SOSCF solution              ....       0.007 sec  (  2.8%)
Finished LeanSCF after   0.2 sec

Maximum memory used throughout the entire LEANSCF-calculation: 4.5 MB

-------------------------   --------------------
FINAL SINGLE POINT ENERGY       -76.230526854112
-------------------------   --------------------



           ************************************************************
           *        Program running with 4 parallel MPI-processes     *
           *              working on a common directory               *
           ************************************************************
------------------------------------------------------------------------------
                         ORCA SCF GRADIENT CALCULATION
------------------------------------------------------------------------------

Nuc. rep. gradient        (SHARK) ... done (  0.0 sec)
HCore & Overlap gradient  (SHARK) ... done (  0.0 sec)
Split-RIJ-J gradient      (SHARK) ... done (  0.1 sec)
XC gradient                       ... done (  0.0 sec)

------------------
CARTESIAN GRADIENT
------------------

   1   O   :    0.311569202   -0.018365877    0.017926588
   2   H   :   -0.315718606    0.017994045   -0.017562257
   3   H   :    0.004149404    0.000371832   -0.000364331

Difference to translation invariance:
           :    0.0000000000   -0.0000000000    0.0000000000

Difference to rotation invariance:
           :    0.0000016245   -0.0000183297   -0.0000175704

Norm of the Cartesian gradient     ...    0.4450415496
RMS gradient                       ...    0.1483471832
MAX gradient                       ...    0.3157186062

-------
TIMINGS
-------

Total SCF gradient time     ....        0.137 sec

Densities                   ....       0.000 sec  (  0.0%)
One electron gradient       ....       0.004 sec  (  3.0%)
RI-J Coulomb gradient       ....       0.092 sec  ( 67.3%)
XC gradient                 ....       0.040 sec  ( 29.6%)

Maximum memory used throughout the entire SCFGRAD-calculation: 5.4 MB
------------------------------------------------------------------------------
                         ORCA GEOMETRY RELAXATION STEP
------------------------------------------------------------------------------

Reading the OPT-File                    .... done
Getting information on internals        .... done
Copying old internal coords+grads       .... done
Making the new internal coordinates     .... (2022 redundants) done
Validating the new internal coordinates .... (2022 redundants) done
Calculating the B-matrix                .... done
Calculating the G,G- and P matrices     .... done
Transforming gradient to internals      .... done
Projecting the internal gradient        .... done
Number of atoms                         ....   3
Number of internal coordinates          ....   3
Current Energy                          ....   -76.230526854 Eh
Current gradient norm                   ....     0.445041550 Eh/bohr
Maximum allowed component of the step   ....  0.300
Current trust radius                    ....  0.300
Evaluating the initial hessian          ....  (Almloef) done
Projecting the Hessian                  .... done
Forming the augmented Hessian           .... done
Diagonalizing the augmented Hessian     .... done
Last element of RFO vector              ....  0.999802333
Lowest eigenvalues of augmented Hessian:
 -0.000141570  0.352963179  0.501765855
Length of the computed step             ....  0.019885958
The final length of the internal step   ....  0.019885958
Converting the step to Cartesian space:
 Initial RMS(Int)=    0.0114811632
Transforming coordinates:
 Iter   0:  RMS(Cart)=    0.0062858041 RMS(Int)=    0.0114784115
Imposing constraints:
 Iter   0:  RMS(Cart)=    0.0000000005 RMS(Int)=    0.0000000000
CONVERGED
done
Storing new coordinates                 .... done

                                .--------------------.
          ----------------------|Geometry convergence|-------------------------
          Item                value                   Tolerance       Converged
          ---------------------------------------------------------------------
          RMS gradient        0.0041217841            0.0001000000      NO
          MAX gradient        0.0068997009            0.0003000000      NO
          RMS step            0.0114811632            0.0020000000      NO
          MAX step            0.0195475628            0.0040000000      NO
          ........................................................
          Max(Bonds)      0.0019      Max(Angles)    1.12
          Max(Dihed)        0.00      Max(Improp)    0.00
          ---------------------------------------------------------------------

The optimization has not yet converged - more geometry cycles are needed


    ---------------------------------------------------------------------------
                         Redundant Internal Coordinates
                            (Angstroem and degrees)

        Definition                    Value    dE/dq     Step     New-Value
    ----------------------------------------------------------------------------
     1. B(H   1,O   0)                0.8000 -0.316689  0.0000    0.8000 C 
     2. B(H   2,O   0)                0.9697 -0.001833  0.0019    0.9716   
     3. A(H   1,O   0,H   2)          103.52 -0.006900    1.12    104.64   
    ----------------------------------------------------------------------------

Geometry step timings:
Preparation and reading OPT file:      0.000 s (10.739 %)
Internal coordinates            :      0.000 s ( 4.754 %)
B/P matrices and projection     :      0.000 s (16.725 %)
Hessian update/contruction      :      0.000 s (16.549 %)
Making the step                 :      0.000 s ( 7.923 %)
Converting the step to Cartesian:      0.000 s ( 6.162 %)
Storing new data                :      0.000 s (10.211 %)
Checking convergence            :      0.000 s ( 0.000 %)
Final printing                  :      0.000 s (26.232 %)
Total time                      :      0.001 s

Time for energy+gradient        :      2.465 s
Time for complete geometry iter :      2.576 s

         *************************************************************
         *                GEOMETRY OPTIMIZATION CYCLE   2            *
         *************************************************************
---------------------------------
CARTESIAN COORDINATES (ANGSTROEM)
---------------------------------
  O     -3.138920   -0.583052   -0.015891
  H     -2.341667   -0.630452    0.030372
  H     -3.461433   -1.238916    0.624339

----------------------------
CARTESIAN COORDINATES (A.U.)
----------------------------
  NO LB      ZA    FRAG     MASS         X           Y           Z
   0 O     8.0000    0    15.999   -5.931699   -1.101809   -0.030029
   1 H     1.0000    0     1.008   -4.425109   -1.191381    0.057395
   2 H     1.0000    0     1.008   -6.541161   -2.341212    1.179829

--------------------------------
INTERNAL COORDINATES (ANGSTROEM)
--------------------------------
 O      0   0   0     0.000000000000     0.00000000     0.00000000
 H      1   0   0     0.800000001513     0.00000000     0.00000000
 H      1   2   0     0.971630372480   104.63684595     0.00000000

---------------------------
INTERNAL COORDINATES (A.U.)
---------------------------
 O      0   0   0     0.000000000000     0.00000000     0.00000000
 H      1   0   0     1.511780909995     0.00000000     0.00000000
 H      1   2   0     1.836115307388   104.63684595     0.00000000



           ************************************************************
           *        Program running with 4 parallel MPI-processes     *
           *              working on a common directory               *
           ************************************************************
------------------------------------------------------------------------------
                   ___                                                        
                  /   \      - P O W E R E D   B Y -                         
                 /     \                                                     
                 |  |  |   _    _      __       _____    __    __             
                 |  |  |  | |  | |    /  \     |  _  \  |  |  /  |          
                  \  \/   | |  | |   /    \    | | | |  |  | /  /          
                 / \  \   | |__| |  /  /\  \   | |_| |  |  |/  /          
                |  |  |   |  __  | /  /__\  \  |    /   |      \           
                |  |  |   | |  | | |   __   |  |    \   |  |\   \          
                \     /   | |  | | |  |  |  |  | |\  \  |  | \   \       
                 \___/    |_|  |_| |__|  |__|  |_| \__\ |__|  \__/        
                                                                              
                      - O R C A' S   B I G   F R I E N D -                    
                                      &                                       
                       - I N T E G R A L  F E E D E R -                       
                                                                              
 v1 FN, 2020, v2 2021, v3 2022-2024                                           
------------------------------------------------------------------------------


----------------------
SHARK INTEGRAL PACKAGE
----------------------

Number of atoms                             ...      3
Number of basis functions                   ...     24
Number of shells                            ...     12
Maximum angular momentum                    ...      2
Integral batch strategy                     ... SHARK/LIBINT Hybrid
RI-J (if used) integral strategy            ... SPLIT-RIJ (Revised 2003 algorithm where possible)
Printlevel                                  ...      1
Contraction scheme used                     ... SEGMENTED contraction
Prescreening option                         ... SCHWARTZ
   Thresh                                   ... 2.500e-11
   Tcut                                     ... 2.500e-12
   Tpresel                                  ... 2.500e-12 
Coulomb Range Separation                    ... NOT USED
Exchange Range Separation                   ... NOT USED
Multipole approximations                    ... NOT USED
Finite Nucleus Model                        ... NOT USED
CABS basis                                  ... NOT available
Auxiliary Coulomb fitting basis             ... AVAILABLE
   # of basis functions in Aux-J            ...     71
   # of shells in Aux-J                     ...     25
   Maximum angular momentum in Aux-J        ...      4
Auxiliary J/K fitting basis                 ... NOT available
Auxiliary Correlation fitting basis         ... NOT available
Auxiliary 'external' fitting basis          ... NOT available

Checking pre-screening integrals            ... done (  0.0 sec) Dimension = 12
Check shell pair data                       ... done (  0.0 sec)
Shell pair information
Shell pair cut-off parameter TPreSel        ...   2.5e-12
Total number of shell pairs                 ...        78
Shell pairs after pre-screening             ...        78
Total number of primitive shell pairs       ...       272
Primitive shell pairs kept                  ...       266
          la=0 lb=0:     28 shell pairs
          la=1 lb=0:     28 shell pairs
          la=1 lb=1:     10 shell pairs
          la=2 lb=0:      7 shell pairs
          la=2 lb=1:      4 shell pairs
          la=2 lb=2:      1 shell pairs

Calculating one electron integrals          ... done (  0.0 sec)
Calculating RI/J V-Matrix + Cholesky decomp.... done (  0.0 sec)
Calculating Nuclear repulsion               ... done (  0.0 sec) ENN=     10.025161316692 Eh

Diagonalization of the overlap matrix:
Smallest eigenvalue                        ... 3.017e-02
Time for diagonalization                   ...    0.000 sec
Threshold for overlap eigenvalues          ... 1.000e-07
Number of eigenvalues below threshold      ... 0
Time for construction of square roots      ...    0.000 sec
Total time needed                          ...    0.001 sec

-------------------
DFT GRID GENERATION
-------------------

General Integration Accuracy     IntAcc      ... 4.388
Radial Grid Type                 RadialGrid  ... OptM3 with GC (2021)
Angular Grid (max. ang.)         AngularGrid ... 4 (Lebedev-302)
Angular grid pruning method      GridPruning ... 4 (adaptive)
Weight generation scheme         WeightScheme... mBecke (2022)
Basis function cutoff            BFCut       ... 1.0000e-11
Integration weight cutoff        WCut        ... 1.0000e-14
Partially contracted basis set               ... off
Rotationally invariant grid construction     ... off
Angular grids for H and He will be reduced by one unit

Total number of grid points                  ...    12730
Total number of batches                      ...      201
Average number of points per batch           ...       63
Average number of grid points per atom       ...     4243
Initializing property integral containers    ... done (  0.0 sec)

SHARK setup successfully completed in   0.1 seconds

Maximum memory used throughout the entire STARTUP-calculation: 8.7 MB


           ************************************************************
           *        Program running with 4 parallel MPI-processes     *
           *              working on a common directory               *
           ************************************************************
Occupation numbers will be reassigned to an Aufbau configuration
             **** ENERGY FILE WAS UPDATED (water_scan.en.tmp) ****
Finished Guess after   0.1 sec
Maximum memory used throughout the entire GUESS-calculation: 5.4 MB


           ************************************************************
           *        Program running with 4 parallel MPI-processes     *
           *              working on a common directory               *
           ************************************************************
----------------------------------------D-I-I-S--------------------------------------------
Iteration    Energy (Eh)           Delta-E    RMSDP     MaxDP     DIISErr   Damp  Time(sec)
-------------------------------------------------------------------------------------------
               ***  Starting incremental Fock matrix formation  ***
                              *** Initializing SOSCF ***
---------------------------------------S-O-S-C-F--------------------------------------
Iteration    Energy (Eh)           Delta-E    RMSDP     MaxDP     MaxGrad    Time(sec)
--------------------------------------------------------------------------------------
    1    -76.2306052747255336     0.00e+00  6.93e-04  4.55e-03  2.53e-04     0.0
               *** Restarting incremental Fock matrix formation ***
    2    -76.2306300336513800    -2.48e-05  1.16e-04  7.67e-04  2.65e-04     0.0
    3    -76.2306305914439264    -5.58e-07  9.76e-06  5.83e-05  3.88e-05     0.0
    4    -76.2306305966514515    -5.21e-09  4.17e-06  2.24e-05  1.73e-05     0.0
                 **** Energy Check signals convergence ****

               *****************************************************
               *                     SUCCESS                       *
               *           SCF CONVERGED AFTER   4 CYCLES          *
               *****************************************************

             **** ENERGY FILE WAS UPDATED (water_scan.en.tmp) ****

----------------
TOTAL SCF ENERGY
----------------

Total Energy       :        -76.23063059665145 Eh           -2074.34092 eV

Components:
Nuclear Repulsion  :         10.02516131669239 Eh             272.79851 eV
Electronic Energy  :        -86.25579191334384 Eh           -2347.13942 eV
One Electron Energy:       -124.47840648577210 Eh           -3387.22964 eV
Two Electron Energy:         38.22261457242826 Eh            1040.09022 eV

Virial components:
Potential Energy   :       -152.38026003350490 Eh           -4146.47768 eV
Kinetic Energy     :         76.14962943685346 Eh            2072.13676 eV
Virial Ratio       :          2.00106371049205

DFT components:
N(Alpha)           :        4.999999527918 electrons
N(Beta)            :        4.999999527918 electrons
N(Total)           :        9.999999055837 electrons
E(X)               :       -9.014475004304 Eh       
E(C)               :       -0.334160210904 Eh       
E(XC)              :       -9.348635215208 Eh       

---------------
SCF CONVERGENCE
---------------

  Last Energy change         ...    5.2075e-09  Tolerance :   1.0000e-08
  Last MAX-Density change    ...    2.2427e-05  Tolerance :   1.0000e-07
  Last RMS-Density change    ...    4.1750e-06  Tolerance :   5.0000e-09
  Last DIIS Error            ...    2.5600e-03  Tolerance :   5.0000e-07
  Last Orbital Gradient      ...    1.7305e-05  Tolerance :   1.0000e-05
  Last Orbital Rotation      ...    9.1174e-06  Tolerance :   1.0000e-05


Total SCF time: 0 days 0 hours 0 min 0 sec 
Finished LeanSCF after   0.2 sec

Maximum memory used throughout the entire LEANSCF-calculation: 4.7 MB

-------------------------   --------------------
FINAL SINGLE POINT ENERGY       -76.230630596651
-------------------------   --------------------



           ************************************************************
           *        Program running with 4 parallel MPI-processes     *
           *              working on a common directory               *
           ************************************************************
------------------------------------------------------------------------------
                         ORCA SCF GRADIENT CALCULATION
------------------------------------------------------------------------------

Nuc. rep. gradient        (SHARK) ... done (  0.0 sec)
HCore & Overlap gradient  (SHARK) ... done (  0.0 sec)
Split-RIJ-J gradient      (SHARK) ... done (  0.1 sec)
XC gradient                       ... done (  0.0 sec)

------------------
CARTESIAN GRADIENT
------------------

   1   O   :    0.313693346   -0.015976926    0.015594292
   2   H   :   -0.315215728    0.017045168   -0.016636046
   3   H   :    0.001522382   -0.001068241    0.001041754

Difference to translation invariance:
           :   -0.0000000000    0.0000000000   -0.0000000000

Difference to rotation invariance:
           :    0.0000012288   -0.0000169412   -0.0000163887

Norm of the Cartesian gradient     ...    0.4459089076
RMS gradient                       ...    0.1486363025
MAX gradient                       ...    0.3152157275

-------
TIMINGS
-------

Total SCF gradient time     ....        0.102 sec

Densities                   ....       0.000 sec  (  0.0%)
One electron gradient       ....       0.003 sec  (  3.0%)
RI-J Coulomb gradient       ....       0.075 sec  ( 72.8%)
XC gradient                 ....       0.025 sec  ( 23.9%)

Maximum memory used throughout the entire SCFGRAD-calculation: 5.4 MB
------------------------------------------------------------------------------
                         ORCA GEOMETRY RELAXATION STEP
------------------------------------------------------------------------------

Reading the OPT-File                    .... done
Getting information on internals        .... done
Copying old internal coords+grads       .... done
Making the new internal coordinates     .... (2022 redundants) done
Validating the new internal coordinates .... (2022 redundants) done
Calculating the B-matrix                .... done
Calculating the G,G- and P matrices     .... done
Transforming gradient to internals      .... done
Projecting the internal gradient        .... done
Number of atoms                         ....   3
Number of internal coordinates          ....   3
Current Energy                          ....   -76.230630597 Eh
Current gradient norm                   ....     0.445908908 Eh/bohr
Maximum allowed component of the step   ....  0.300
Current trust radius                    ....  0.300
Updating the Hessian (BFGS)             .... done
Forming the augmented Hessian           .... done
Diagonalizing the augmented Hessian     .... done
Last element of RFO vector              ....  0.999751302
Lowest eigenvalues of augmented Hessian:
 -0.000081315  0.162437870  0.580105777
Length of the computed step             ....  0.022306537
The final length of the internal step   ....  0.022306537
Converting the step to Cartesian space:
 Initial RMS(Int)=    0.0128786853
Transforming coordinates:
 Iter   0:  RMS(Cart)=    0.0063138834 RMS(Int)=    0.0128809243
Imposing constraints:
 Iter   0:  RMS(Cart)=    0.0000000005 RMS(Int)=    0.0000000000
CONVERGED
done
Storing new coordinates                 .... done
The predicted energy change is          ....    -0.000040678
Previously predicted energy change      ....    -0.000070813
Actually observed energy change         ....    -0.000103743
Ratio of predicted to observed change   ....     1.465023778
New trust radius                        ....     0.300000000

                                .--------------------.
          ----------------------|Geometry convergence|-------------------------
          Item                value                   Tolerance       Converged
          ---------------------------------------------------------------------
          Energy change      -0.0001037425            0.0000050000      NO
          RMS gradient        0.0021207061            0.0001000000      NO
          MAX gradient        0.0035599635            0.0003000000      NO
          RMS step            0.0128786853            0.0020000000      NO
          MAX step            0.0221303969            0.0040000000      NO
          ........................................................
          Max(Bonds)      0.0015      Max(Angles)    1.27
          Max(Dihed)        0.00      Max(Improp)    0.00
          ---------------------------------------------------------------------

The optimization has not yet converged - more geometry cycles are needed


    ---------------------------------------------------------------------------
                         Redundant Internal Coordinates
                            (Angstroem and degrees)

        Definition                    Value    dE/dq     Step     New-Value
    ----------------------------------------------------------------------------
     1. B(H   1,O   0)                0.8000 -0.316109 -0.0000    0.8000 C 
     2. B(H   2,O   0)                0.9716  0.000905 -0.0015    0.9701   
     3. A(H   1,O   0,H   2)          104.64 -0.003560    1.27    105.90   
    ----------------------------------------------------------------------------

Geometry step timings:
Preparation and reading OPT file:      0.000 s ( 9.753 %)
Internal coordinates            :      0.000 s ( 3.901 %)
B/P matrices and projection     :      0.000 s (14.044 %)
Hessian update/contruction      :      0.000 s (22.107 %)
Making the step                 :      0.000 s ( 7.412 %)
Converting the step to Cartesian:      0.000 s ( 5.332 %)
Storing new data                :      0.000 s ( 9.753 %)
Checking convergence            :      0.000 s ( 2.211 %)
Final printing                  :      0.000 s (25.098 %)
Total time                      :      0.001 s

Time for energy+gradient        :      0.854 s
Time for complete geometry iter :      0.966 s

         *************************************************************
         *                GEOMETRY OPTIMIZATION CYCLE   3            *
         *************************************************************
---------------------------------
CARTESIAN COORDINATES (ANGSTROEM)
---------------------------------
  O     -3.136651   -0.586598   -0.012430
  H     -2.338590   -0.626429    0.026446
  H     -3.466779   -1.239392    0.624804

----------------------------
CARTESIAN COORDINATES (A.U.)
----------------------------
  NO LB      ZA    FRAG     MASS         X           Y           Z
   0 O     8.0000    0    15.999   -5.927412   -1.108510   -0.023488
   1 H     1.0000    0     1.008   -4.419294   -1.183780    0.049975
   2 H     1.0000    0     1.008   -6.551263   -2.342112    1.180708

--------------------------------
INTERNAL COORDINATES (ANGSTROEM)
--------------------------------
 O      0   0   0     0.000000000000     0.00000000     0.00000000
 H      1   0   0     0.800000001518     0.00000000     0.00000000
 H      1   2   0     0.970149892165   105.90482428     0.00000000

---------------------------
INTERNAL COORDINATES (A.U.)
---------------------------
 O      0   0   0     0.000000000000     0.00000000     0.00000000
 H      1   0   0     1.511780910006     0.00000000     0.00000000
 H      1   2   0     1.833317605045   105.90482428     0.00000000



           ************************************************************
           *        Program running with 4 parallel MPI-processes     *
           *              working on a common directory               *
           ************************************************************
------------------------------------------------------------------------------
                   ___                                                        
                  /   \      - P O W E R E D   B Y -                         
                 /     \                                                     
                 |  |  |   _    _      __       _____    __    __             
                 |  |  |  | |  | |    /  \     |  _  \  |  |  /  |          
                  \  \/   | |  | |   /    \    | | | |  |  | /  /          
                 / \  \   | |__| |  /  /\  \   | |_| |  |  |/  /          
                |  |  |   |  __  | /  /__\  \  |    /   |      \           
                |  |  |   | |  | | |   __   |  |    \   |  |\   \          
                \     /   | |  | | |  |  |  |  | |\  \  |  | \   \       
                 \___/    |_|  |_| |__|  |__|  |_| \__\ |__|  \__/        
                                                                              
                      - O R C A' S   B I G   F R I E N D -                    
                                      &                                       
                       - I N T E G R A L  F E E D E R -                       
                                                                              
 v1 FN, 2020, v2 2021, v3 2022-2024                                           
------------------------------------------------------------------------------


----------------------
SHARK INTEGRAL PACKAGE
----------------------

Number of atoms                             ...      3
Number of basis functions                   ...     24
Number of shells                            ...     12
Maximum angular momentum                    ...      2
Integral batch strategy                     ... SHARK/LIBINT Hybrid
RI-J (if used) integral strategy            ... SPLIT-RIJ (Revised 2003 algorithm where possible)
Printlevel                                  ...      1
Contraction scheme used                     ... SEGMENTED contraction
Prescreening option                         ... SCHWARTZ
   Thresh                                   ... 2.500e-11
   Tcut                                     ... 2.500e-12
   Tpresel                                  ... 2.500e-12 
Coulomb Range Separation                    ... NOT USED
Exchange Range Separation                   ... NOT USED
Multipole approximations                    ... NOT USED
Finite Nucleus Model                        ... NOT USED
CABS basis                                  ... NOT available
Auxiliary Coulomb fitting basis             ... AVAILABLE
   # of basis functions in Aux-J            ...     71
   # of shells in Aux-J                     ...     25
   Maximum angular momentum in Aux-J        ...      4
Auxiliary J/K fitting basis                 ... NOT available
Auxiliary Correlation fitting basis         ... NOT available
Auxiliary 'external' fitting basis          ... NOT available

Checking pre-screening integrals            ... done (  0.0 sec) Dimension = 12
Check shell pair data                       ... done (  0.0 sec)
Shell pair information
Shell pair cut-off parameter TPreSel        ...   2.5e-12
Total number of shell pairs                 ...        78
Shell pairs after pre-screening             ...        78
Total number of primitive shell pairs       ...       272
Primitive shell pairs kept                  ...       266
          la=0 lb=0:     28 shell pairs
          la=1 lb=0:     28 shell pairs
          la=1 lb=1:     10 shell pairs
          la=2 lb=0:      7 shell pairs
          la=2 lb=1:      4 shell pairs
          la=2 lb=2:      1 shell pairs

Calculating one electron integrals          ... done (  0.0 sec)
Calculating RI/J V-Matrix + Cholesky decomp.... done (  0.0 sec)
Calculating Nuclear repulsion               ... done (  0.0 sec) ENN=     10.029017863287 Eh

Diagonalization of the overlap matrix:
Smallest eigenvalue                        ... 3.030e-02
Time for diagonalization                   ...    0.000 sec
Threshold for overlap eigenvalues          ... 1.000e-07
Number of eigenvalues below threshold      ... 0
Time for construction of square roots      ...    0.000 sec
Total time needed                          ...    0.001 sec

-------------------
DFT GRID GENERATION
-------------------

General Integration Accuracy     IntAcc      ... 4.388
Radial Grid Type                 RadialGrid  ... OptM3 with GC (2021)
Angular Grid (max. ang.)         AngularGrid ... 4 (Lebedev-302)
Angular grid pruning method      GridPruning ... 4 (adaptive)
Weight generation scheme         WeightScheme... mBecke (2022)
Basis function cutoff            BFCut       ... 1.0000e-11
Integration weight cutoff        WCut        ... 1.0000e-14
Partially contracted basis set               ... off
Rotationally invariant grid construction     ... off
Angular grids for H and He will be reduced by one unit

Total number of grid points                  ...    12731
Total number of batches                      ...      201
Average number of points per batch           ...       63
Average number of grid points per atom       ...     4244
Initializing property integral containers    ... done (  0.0 sec)

SHARK setup successfully completed in   0.1 seconds

Maximum memory used throughout the entire STARTUP-calculation: 8.7 MB


           ************************************************************
           *        Program running with 4 parallel MPI-processes     *
           *              working on a common directory               *
           ************************************************************
Occupation numbers will be reassigned to an Aufbau configuration
             **** ENERGY FILE WAS UPDATED (water_scan.en.tmp) ****
Finished Guess after   0.1 sec
Maximum memory used throughout the entire GUESS-calculation: 5.4 MB


           ************************************************************
           *        Program running with 4 parallel MPI-processes     *
           *              working on a common directory               *
           ************************************************************
----------------------------------------D-I-I-S--------------------------------------------
Iteration    Energy (Eh)           Delta-E    RMSDP     MaxDP     DIISErr   Damp  Time(sec)
-------------------------------------------------------------------------------------------
               ***  Starting incremental Fock matrix formation  ***
                              *** Initializing SOSCF ***
---------------------------------------S-O-S-C-F--------------------------------------
Iteration    Energy (Eh)           Delta-E    RMSDP     MaxDP     MaxGrad    Time(sec)
--------------------------------------------------------------------------------------
    1    -76.2306402144040050     0.00e+00  7.77e-04  5.02e-03  3.20e-04     0.0
               *** Restarting incremental Fock matrix formation ***
    2    -76.2306726588457195    -3.24e-05  1.49e-04  8.48e-04  4.43e-04     0.0
    3    -76.2306734537211241    -7.95e-07  6.26e-05  4.56e-04  2.22e-04     0.0
    4    -76.2306734740685101    -2.03e-08  4.09e-05  3.01e-04  1.51e-04     0.0
    5    -76.2306735894109266    -1.15e-07  2.83e-06  1.74e-05  7.14e-06     0.0
    6    -76.2306735896933247    -2.82e-10  8.34e-07  5.53e-06  3.33e-06     0.0
                 **** Energy Check signals convergence ****

               *****************************************************
               *                     SUCCESS                       *
               *           SCF CONVERGED AFTER   6 CYCLES          *
               *****************************************************

             **** ENERGY FILE WAS UPDATED (water_scan.en.tmp) ****

----------------
TOTAL SCF ENERGY
----------------

Total Energy       :        -76.23067358969332 Eh           -2074.34209 eV

Components:
Nuclear Repulsion  :         10.02901786328691 Eh             272.90345 eV
Electronic Energy  :        -86.25969145298023 Eh           -2347.24554 eV
One Electron Energy:       -124.48927258571115 Eh           -3387.52533 eV
Two Electron Energy:         38.22958113273092 Eh            1040.27979 eV

Virial components:
Potential Energy   :       -152.37864321023085 Eh           -4146.43368 eV
Kinetic Energy     :         76.14796962053752 Eh            2072.09160 eV
Virial Ratio       :          2.00108609552649

DFT components:
N(Alpha)           :        4.999999476213 electrons
N(Beta)            :        4.999999476213 electrons
N(Total)           :        9.999998952426 electrons
E(X)               :       -9.015030081649 Eh       
E(C)               :       -0.334194704827 Eh       
E(XC)              :       -9.349224786476 Eh       

---------------
SCF CONVERGENCE
---------------

  Last Energy change         ...    2.8240e-10  Tolerance :   1.0000e-08
  Last MAX-Density change    ...    5.5296e-06  Tolerance :   1.0000e-07
  Last RMS-Density change    ...    8.3390e-07  Tolerance :   5.0000e-09
  Last DIIS Error            ...    2.9322e-03  Tolerance :   5.0000e-07
  Last Orbital Gradient      ...    3.3278e-06  Tolerance :   1.0000e-05
  Last Orbital Rotation      ...    2.2713e-06  Tolerance :   1.0000e-05


Total SCF time: 0 days 0 hours 0 min 0 sec 
Finished LeanSCF after   0.2 sec

Maximum memory used throughout the entire LEANSCF-calculation: 4.8 MB

-------------------------   --------------------
FINAL SINGLE POINT ENERGY       -76.230673589693
-------------------------   --------------------



           ************************************************************
           *        Program running with 4 parallel MPI-processes     *
           *              working on a common directory               *
           ************************************************************
------------------------------------------------------------------------------
                         ORCA SCF GRADIENT CALCULATION
------------------------------------------------------------------------------

Nuc. rep. gradient        (SHARK) ... done (  0.0 sec)
HCore & Overlap gradient  (SHARK) ... done (  0.0 sec)
Split-RIJ-J gradient      (SHARK) ... done (  0.1 sec)
XC gradient                       ... done (  0.0 sec)

------------------
CARTESIAN GRADIENT
------------------

   1   O   :    0.314713643   -0.015322483    0.014955204
   2   H   :   -0.314661242    0.015617279   -0.015242249
   3   H   :   -0.000052400   -0.000294797    0.000287045

Difference to translation invariance:
           :   -0.0000000000    0.0000000000   -0.0000000000

Difference to rotation invariance:
           :    0.0000008802   -0.0000130391   -0.0000126259

Norm of the Cartesian gradient     ...    0.4460843068
RMS gradient                       ...    0.1486947689
MAX gradient                       ...    0.3147136429

-------
TIMINGS
-------

Total SCF gradient time     ....        0.105 sec

Densities                   ....       0.000 sec  (  0.0%)
One electron gradient       ....       0.003 sec  (  3.0%)
RI-J Coulomb gradient       ....       0.077 sec  ( 73.4%)
XC gradient                 ....       0.025 sec  ( 23.4%)

Maximum memory used throughout the entire SCFGRAD-calculation: 5.4 MB
------------------------------------------------------------------------------
                         ORCA GEOMETRY RELAXATION STEP
------------------------------------------------------------------------------

Reading the OPT-File                    .... done
Getting information on internals        .... done
Copying old internal coords+grads       .... done
Making the new internal coordinates     .... (2022 redundants) done
Validating the new internal coordinates .... (2022 redundants) done
Calculating the B-matrix                .... done
Calculating the G,G- and P matrices     .... done
Transforming gradient to internals      .... done
Projecting the internal gradient        .... done
Number of atoms                         ....   3
Number of internal coordinates          ....   3
Current Energy                          ....   -76.230673590 Eh
Current gradient norm                   ....     0.446084307 Eh/bohr
Maximum allowed component of the step   ....  0.300
Current trust radius                    ....  0.300
Updating the Hessian (BFGS)             .... done
Forming the augmented Hessian           .... done
Diagonalizing the augmented Hessian     .... done
Last element of RFO vector              ....  0.999998713
Lowest eigenvalues of augmented Hessian:
 -0.000000581  0.153240384  0.576705039
Length of the computed step             ....  0.001604079
The final length of the internal step   ....  0.001604079
Converting the step to Cartesian space:
 Initial RMS(Int)=    0.0009261156
Transforming coordinates:
 Iter   0:  RMS(Cart)=    0.0003731166 RMS(Int)=    0.0009261600
Imposing constraints:
 Iter   0:  RMS(Cart)=    0.0000000000 RMS(Int)=    0.0000000000
CONVERGED
done
Storing new coordinates                 .... done
The predicted energy change is          ....    -0.000000291
Previously predicted energy change      ....    -0.000040678
Actually observed energy change         ....    -0.000042993
Ratio of predicted to observed change   ....     1.056917842
New trust radius                        ....     0.450000000

                                .--------------------.
          ----------------------|Geometry convergence|-------------------------
          Item                value                   Tolerance       Converged
          ---------------------------------------------------------------------
          Energy change      -0.0000429930            0.0000050000      NO
          RMS gradient        0.0002561209            0.0001000000      NO
          MAX gradient        0.0004067950            0.0003000000      NO
          RMS step            0.0009261156            0.0020000000      YES
          MAX step            0.0013714561            0.0040000000      YES
          ........................................................
          Max(Bonds)      0.0004      Max(Angles)    0.08
          Max(Dihed)        0.00      Max(Improp)    0.00
          ---------------------------------------------------------------------

The optimization has not yet converged - more geometry cycles are needed


    ---------------------------------------------------------------------------
                         Redundant Internal Coordinates
                            (Angstroem and degrees)

        Definition                    Value    dE/dq     Step     New-Value
    ----------------------------------------------------------------------------
     1. B(H   1,O   0)                0.8000 -0.315420  0.0000    0.8000 C 
     2. B(H   2,O   0)                0.9701  0.000407 -0.0004    0.9697   
     3. A(H   1,O   0,H   2)          105.90 -0.000177    0.08    105.98   
    ----------------------------------------------------------------------------

Geometry step timings:
Preparation and reading OPT file:      0.000 s (13.269 %)
Internal coordinates            :      0.000 s ( 3.991 %)
B/P matrices and projection     :      0.000 s (14.239 %)
Hessian update/contruction      :      0.000 s (19.957 %)
Making the step                 :      0.000 s ( 7.335 %)
Converting the step to Cartesian:      0.000 s ( 5.717 %)
Storing new data                :      0.000 s ( 3.668 %)
Checking convergence            :      0.000 s ( 2.265 %)
Final printing                  :      0.000 s (29.234 %)
Total time                      :      0.001 s

[...]
   Minimum AH scaling param. (alpha)    ....   1.000
   Maximum AH scaling param. (alpha)    .... 1000.000
   Quad. conv. algorithm                .... NR
   White noise on init. David. guess    .... on
   Maximum white noise                  ....   0.010
   Pseudo random numbers                .... off
   Inactive MOs                         .... canonical
   Orbital update algorithm             .... Taylor
   Preconditioner                       .... Diag
   Full preconditioner red. dimension   ....   250
 SOSCF                  CNVSOSCF        .... on
   Start iteration      SOSCFMaxIt      ....   150
   Startup grad/error   SOSCFStart      ....  0.003300
   Hessian update       SOSCFHessUp     .... L-BFGS
 Level Shifting         CNVShift        .... on
   Level shift para.    LevelShift      ....    0.2500
   Turn off err/grad.   ShiftErr        ....    0.0010
 Zerner damping         CNVZerner       .... off
 Static damping         CNVDamp         .... on
   Fraction old density DampFac         ....    0.7000
   Max. Damping (<1)    DampMax         ....    0.9800
   Min. Damping (>=0)   DampMin         ....    0.0000
   Turn off err/grad.   DampErr         ....    0.1000

SCF Procedure:
 Maximum # iterations   MaxIter         ....   125
 SCF integral mode      SCFMode         .... Direct
   Integral package                     .... SHARK and LIBINT hybrid scheme
 Reset frequency        DirectResetFreq ....    20
 Integral Threshold     Thresh          ....  2.500e-11 Eh
 Primitive CutOff       TCut            ....  2.500e-12 Eh

Convergence Tolerance:
 Convergence Check Mode ConvCheckMode   .... Total+1el-Energy
 Convergence forced     ConvForced      .... 0
 Energy Change          TolE            ....  1.000e-08 Eh
 1-El. energy change                    ....  1.000e-05 Eh
 Orbital Gradient       TolG            ....  1.000e-05
 Orbital Rotation angle TolX            ....  1.000e-05
 DIIS Error             TolErr          ....  5.000e-07

---------------------
INITIAL GUESS: MOREAD
---------------------
Guess MOs are being read from file: water_scan.gbw
Input Geometry matches current geometry (good)
Input basis set matches current basis set (good)
Occupation numbers will be reassigned to an Aufbau configuration
MOs were renormalized
MOs were reorthogonalized (Cholesky)
                      ------------------
                      INITIAL GUESS DONE (   0.0 sec)
                      ------------------
             **** ENERGY FILE WAS UPDATED (water_scan.en.tmp) ****
Finished Guess after   0.1 sec
Maximum memory used throughout the entire GUESS-calculation: 5.4 MB


           ************************************************************
           *        Program running with 4 parallel MPI-processes     *
           *              working on a common directory               *
           ************************************************************

-------------------------------------------------------------------------------------------
                                      ORCA LEAN-SCF
                              memory conserving SCF solver
-------------------------------------------------------------------------------------------

----------------------------------------D-I-I-S--------------------------------------------
Iteration    Energy (Eh)           Delta-E    RMSDP     MaxDP     DIISErr   Damp  Time(sec)
-------------------------------------------------------------------------------------------
               ***  Starting incremental Fock matrix formation  ***
                              *** Initializing SOSCF ***
---------------------------------------S-O-S-C-F--------------------------------------
Iteration    Energy (Eh)           Delta-E    RMSDP     MaxDP     MaxGrad    Time(sec)
--------------------------------------------------------------------------------------
    1    -76.1839220647877227     0.00e+00  2.87e-05  1.75e-04  1.58e-05     0.0
               *** Restarting incremental Fock matrix formation ***
    2    -76.1839221246210201    -5.98e-08  2.02e-05  1.84e-04  4.08e-05     0.0
    3    -76.1839220849260812     3.97e-08  1.57e-05  1.41e-04  1.04e-04     0.0
    4    -76.1839221320334730    -4.71e-08  1.74e-06  9.65e-06  3.52e-06     0.0
    5    -76.1839221321331337    -9.97e-11  4.60e-07  2.72e-06  1.87e-06     0.0
                 **** Energy Check signals convergence ****

               *****************************************************
               *                     SUCCESS                       *
               *           SCF CONVERGED AFTER   5 CYCLES          *
               *****************************************************

             **** ENERGY FILE WAS UPDATED (water_scan.en.tmp) ****

----------------
TOTAL SCF ENERGY
----------------

Total Energy       :        -76.18392213213313 Eh           -2073.06991 eV

Components:
Nuclear Repulsion  :          7.41303065479052 Eh             201.71882 eV
Electronic Energy  :        -83.59695278692365 Eh           -2274.78873 eV
One Electron Energy:       -119.62610565582301 Eh           -3255.19183 eV
Two Electron Energy:         36.02915286889936 Eh             980.40309 eV

Virial components:
Potential Energy   :       -151.64062386087971 Eh           -4126.35115 eV
Kinetic Energy     :         75.45670172874657 Eh            2053.28124 eV
Virial Ratio       :          2.00963758535326

DFT components:
N(Alpha)           :        4.999999876247 electrons
N(Beta)            :        4.999999876247 electrons
N(Total)           :        9.999999752493 electrons
E(X)               :       -8.777906598483 Eh       
E(C)               :       -0.318121364976 Eh       
E(XC)              :       -9.096027963459 Eh       

---------------
SCF CONVERGENCE
---------------

  Last Energy change         ...    9.9661e-11  Tolerance :   1.0000e-08
  Last MAX-Density change    ...    2.7214e-06  Tolerance :   1.0000e-07
  Last RMS-Density change    ...    4.6032e-07  Tolerance :   5.0000e-09
  Last DIIS Error            ...    1.2913e-04  Tolerance :   5.0000e-07
  Last Orbital Gradient      ...    1.8693e-06  Tolerance :   1.0000e-05
  Last Orbital Rotation      ...    1.4930e-06  Tolerance :   1.0000e-05


----------------
ORBITAL ENERGIES
----------------

  NO   OCC          E(Eh)            E(eV) 
   0   2.0000     -18.770517      -510.7717 
   1   2.0000      -0.843712       -22.9586 
   2   2.0000      -0.379739       -10.3332 
   3   2.0000      -0.318812        -8.6753 
   4   2.0000      -0.223131        -6.0717 
   5   0.0000      -0.107657        -2.9295 
   6   0.0000       0.060370         1.6427 
   7   0.0000       0.398673        10.8484 
   8   0.0000       0.541836        14.7441 
   9   0.0000       0.854239        23.2450 
  10   0.0000       0.854527        23.2528 
  11   0.0000       0.963397        26.2154 
  12   0.0000       1.032359        28.0919 
  13   0.0000       1.282741        34.9052 
  14   0.0000       1.315071        35.7849 
  15   0.0000       1.428996        38.8850 
*Only the first 10 virtual orbitals were printed.

                    ********************************
                    * MULLIKEN POPULATION ANALYSIS *
                    ********************************

-----------------------
MULLIKEN ATOMIC CHARGES
-----------------------
   0 O :   -0.341319
   1 H :    0.176568
   2 H :    0.164752
Sum of atomic charges:   -0.0000000

--------------------------------
MULLIKEN REDUCED ORBITAL CHARGES
--------------------------------
  0 O s       :     3.856970  s :     3.856970
      pz      :     1.652841  p :     4.477280
      px      :     1.187557
      py      :     1.636882
      dz2     :     0.001133  d :     0.007070
      dxz     :     0.000295
      dyz     :     0.003395
      dx2y2   :     0.001942
      dxy     :     0.000306

  1 H s       :     0.808775  s :     0.808775
      pz      :     0.002560  p :     0.014658
      px      :     0.009554
      py      :     0.002543

  2 H s       :     0.768111  s :     0.768111
      pz      :     0.026425  p :     0.067137
      px      :     0.013997
      py      :     0.026715



                     *******************************
                     * LOEWDIN POPULATION ANALYSIS *
                     *******************************

----------------------
LOEWDIN ATOMIC CHARGES
----------------------
   0 O :   -0.236878
   1 H :    0.174008
   2 H :    0.062870

-------------------------------
LOEWDIN REDUCED ORBITAL CHARGES
-------------------------------
  0 O s       :     3.667217  s :     3.667217
      pz      :     1.687920  p :     4.557530
      px      :     1.194284
      py      :     1.675326
      dz2     :     0.001171  d :     0.012131
      dxz     :     0.000188
      dyz     :     0.007289
      dx2y2   :     0.003289
      dxy     :     0.000194

  1 H s       :     0.798779  s :     0.798779
      pz      :     0.004035  p :     0.027213
      px      :     0.019196
      py      :     0.003982

  2 H s       :     0.760797  s :     0.760797
      pz      :     0.072718  p :     0.176333
      px      :     0.029866
      py      :     0.073748



                      *****************************
                      * MAYER POPULATION ANALYSIS *
                      *****************************

  NA   - Mulliken gross atomic population
  ZA   - Total nuclear charge
  QA   - Mulliken gross atomic charge
  VA   - Mayer's total valence
  BVA  - Mayer's bonded valence
  FA   - Mayer's free valence

  ATOM       NA         ZA         QA         VA         BVA        FA
  0 O      8.3413     8.0000    -0.3413     1.9592     1.9592    -0.0000
  1 H      0.8234     1.0000     0.1766     0.9696     0.9696    -0.0000
  2 H      0.8352     1.0000     0.1648     0.9966     0.9966    -0.0000

  Mayer bond orders larger than 0.100000
B(  0-O ,  1-H ) :   0.9661 B(  0-O ,  2-H ) :   0.9931 

-------
TIMINGS
-------

Total SCF time: 0 days 0 hours 0 min 0 sec 

Total time                  ....       0.369 sec
Sum of individual times     ....       0.358 sec  ( 97.1%)

SCF preparation             ....       0.123 sec  ( 33.4%)
Fock matrix formation       ....       0.076 sec  ( 20.5%)
  Startup                   ....       0.002 sec  (  2.6% of F)
  Split-RI-J                ....       0.010 sec  ( 12.6% of F)
  XC integration            ....       0.058 sec  ( 76.5% of F)
    XC Preparation          ....       0.000 sec  (  0.0% of XC)
    Basis function eval.    ....       0.013 sec  ( 23.2% of XC)
    Density eval.           ....       0.005 sec  (  8.1% of XC)
    XC-Functional eval.     ....       0.010 sec  ( 17.6% of XC)
    XC-Potential eval.      ....       0.004 sec  (  6.6% of XC)
Diagonalization             ....       0.000 sec  (  0.0%)
Density matrix formation    ....       0.002 sec  (  0.6%)
Total Energy calculation    ....       0.002 sec  (  0.7%)
Population analysis         ....       0.143 sec  ( 38.8%)
Orbital Transformation      ....       0.002 sec  (  0.5%)
Orbital Orthonormalization  ....       0.000 sec  (  0.0%)
DIIS solution               ....       0.002 sec  (  0.7%)
SOSCF solution              ....       0.008 sec  (  2.1%)
Finished LeanSCF after   0.5 sec

Maximum memory used throughout the entire LEANSCF-calculation: 14.5 MB

-------------------------   --------------------
FINAL SINGLE POINT ENERGY       -76.183922132133
-------------------------   --------------------

                                *** OPTIMIZATION RUN DONE ***


Storing optimized geometry in water_scan.010.xyz ... done
Storing optimized geometry and energy in water_scan.xyzall ... done
Storing actual gbw-file in water_scan.010.gbw ... done


           ************************************************************
           *        Program running with 4 parallel MPI-processes     *
           *              working on a common directory               *
           ************************************************************

------------------------------------------------------------------------------
                              ORCA PROPERTY CALCULATIONS
------------------------------------------------------------------------------

GBWName                                 ... water_scan.gbw
Number of atoms                         ...      3
Number of basis functions               ...     24
Max core memory                         ...    350 MB

Electric properties:
Dipole moment                           ... YES
Quadrupole moment                       ...  NO
Static polarizability (Dipole/Dipole)   ...  NO
Static polarizability (Dipole/Quad.)    ...  NO
Static polarizability (Quad./Quad.)     ...  NO
Static polarizability (Velocity)        ...  NO

Atomic electric properties:
Dipole moment                           ...  NO
Quadrupole moment                       ...  NO
Static polarizability                   ...  NO

Choice of electric origin               ... Center of mass
Position of electric origin             ...    -6.375434    -1.159615     0.026402

General magnetic properties:
Magnetizability                         ...  NO

EPR properties:
g-Tensor (aka g-matrix)                 ...  NO
Zero-Field splitting spin-orbit         ...  NO
Zero-field splitting spin-spin          ...  NO
Hyperfine couplings                     ...  NO (   0 nuclei)
Quadrupole couplings                    ...  NO (   0 nuclei)
Contact density                         ...  NO (   0 nuclei)

NMR properties:
Chemical shifts                         ...  NO (   0 nuclei)
Spin-rotation constants                 ...  NO (   0 nuclei)
Spin-spin couplings                     ...  NO (   0 nuclei,    0 pairs)

Choice of magnetic origin               ... GIAO
Position of magnetic origin             ...     0.000000     0.000000     0.000000

Properties with geometric perturbations:
SCF Hessian                             ...  NO
IR spectrum                             ...  NO
VCD spectrum                            ...  NO
X-ray spectroscopy properties:
SCF XES/XAS/RIXS spectra                ...  NO


-------------
DIPOLE MOMENT
-------------

Method             : SCF
Type of density    : Electron Density
Multiplicity       :   1
Irrep              :   0
Energy             :   -76.1839221321331337 Eh
Relativity type    : 
Basis              : AO
                                X                 Y                 Z
Electronic contribution:     -0.650199844       0.163373324      -0.159472807
Nuclear contribution   :      1.179496202      -0.611657000       0.597064902
                        -----------------------------------------
Total Dipole Moment    :      0.529296358      -0.448283676       0.437592095
                        -----------------------------------------
Magnitude (a.u.)       :      0.820121778
Magnitude (Debye)      :      2.084583895



--------------------
Rotational spectrum 
--------------------
 
Rotational constants in cm-1:            18.631602             7.781750             5.489135 
Rotational constants in MHz :        558561.386046        233290.990717        164560.141449 

Dipole components along the rotational axes: 
x,y,z [a.u.] :     0.481453    -0.663930     0.000000 
x,y,z [Debye]:     1.223757    -1.687575     0.000001 

 

Dipole moment calculation done in   0.1 sec 

Maximum memory used throughout the entire PROP-calculation: 9.0 MB
                   **** RELAXED SURFACE SCAN DONE ***

                    SUMMARY OF THE CALCULATED SURFACE

----------------------------
RELAXED SURFACE SCAN RESULTS
----------------------------

Column   1: NONAME

The Calculated Surface using the 'Actual Energy'
   0.80000000 -76.23067389
   0.87777778 -76.26216326
   0.95555556 -76.27234942
   1.03333333 -76.27002128
   1.11111111 -76.26050938
   1.18888889 -76.24706330
   1.26666667 -76.23167352
   1.34444444 -76.21556679
   1.42222222 -76.19949798
   1.50000000 -76.18392213

The Calculated Surface using the SCF energy
   0.80000000 -76.23067389
   0.87777778 -76.26216326
   0.95555556 -76.27234942
   1.03333333 -76.27002128
   1.11111111 -76.26050938
   1.18888889 -76.24706330
   1.26666667 -76.23167352
   1.34444444 -76.21556679
   1.42222222 -76.19949798
   1.50000000 -76.18392213


--------------------------------
SUGGESTED CITATIONS FOR THIS RUN
--------------------------------

Below you find a list of papers that are relevant to this ORCA run
We neither can nor want to force you to cite these papers, but we appreciate if you do
You receive ORCA, which is the product of decades of hard work by many enthusiastic individuals, for free
The only thing we kindly ask in return is that you cite our papers,
We deeply appreciate it, if you show your appreciation for ORCA by not just citing the generic ORCA reference.

Please note that relegating all ORCA citations to the supporting information does *not* help us.
SI sections are not indexed - citations you put there will not count into any citation statistics
But we need these citations in order to attract the funding resources that allow us to do what we are doing

Therefore, if you are a happy ORCA user, please consider citing a few of the papers listed below in the main body of your paper

In addition to the list printed below, the program has created the file water_scan.bibtex that contains the list in bibtex format
You can import this file easily into all common literature databanks and citation aid programs


List of essential papers. We consider these as the minimum necessary citations

  1. Neese,F.
     Software update: the ORCA program system, version 5.0
     WIRES Comput. Molec. Sci., 2022 12(1)e1606
     doi.org/10.1002/wcms.1606

List of papers to cite with high priority. The work reported in these papers was absolutely
necessary for this run to complete.
Our perspective: the developers of density functionals and basis sets usually get cited in chemistry papers
Good! But without the algorithms to do something with them, the functionals or basis sets would not do anything.
Hence, in our opinion, the algorithm design and method developments papers are equally worthy of getting cited

  1. Neese,F.
     An improvement of the resolution of the identity approximation for the formation of the Coulomb matrix
     J. Comp. Chem., 2003 24(14)1740-1747
     doi.org/10.1002/jcc.10318
  2. Neese,F.
     The SHARK Integral Generation and Digestion System
     J. Comp. Chem., 2022  1-16
     doi.org/10.1002/jcc.26942

List of suggested additional citations. These are papers that are important in the 'surrounding' of 
of this run, or papers that preceded the highly important papers. If you like your results we are grateful for a citation.

  1. Neese,F.
     The ORCA program system
     WIRES Comput. Molec. Sci., 2012 2(1)73-78
     doi.org/10.1002/wcms.81
  2. Neese,F.
     Software update: the ORCA program system, version 4.0
     WIRES Comput. Molec. Sci., 2018 8(1)1-6
     doi.org/10.1002/wcms.1327
  3. Neese,F.; Wennmohs,F.; Becker,U.; Riplinger,C.
     The ORCA quantum chemistry program package
     J. Chem. Phys., 2020 152 Art. No. L224108
     doi.org/10.1063/5.0004608

List of optional additional citations

  1. Neese,F.
     Approximate second-order SCF convergence for spin unrestricted wavefunctions
     Chem. Phys. Lett., 2000 325(1-3)93-98
     doi.org/10.1016/s0009-2614(00)00662-x

Timings for individual modules:

Sum of individual times          ...       45.038 sec (=   0.751 min)
Startup calculation              ...       11.173 sec (=   0.186 min)  24.8 %
SCF iterations                   ...       22.591 sec (=   0.377 min)  50.2 %
Property calculations            ...        1.754 sec (=   0.029 min)   3.9 %
SCF Gradient evaluation          ...        9.444 sec (=   0.157 min)  21.0 %
Geometry relaxation              ...        0.077 sec (=   0.001 min)   0.2 %
                             ****ORCA TERMINATED NORMALLY****
TOTAL RUN TIME: 0 days 0 hours 0 minutes 50 seconds 378 msec
