
                                 *****************
                                 * O   R   C   A *
                                 *****************

                                            #,                                       
                                            ###                                      
                                            ####                                     
                                            #####                                    
                                            ######                                   
                                           ########,                                 
                                     ,,################,,,,,                         
                               ,,#################################,,                 
                          ,,##########################################,,             
                       ,#########################################, ''#####,          
                    ,#############################################,,   '####,        
                  ,##################################################,,,,####,       
                ,###########''''           ''''###############################       
              ,#####''   ,,,,##########,,,,          '''####'''          '####       
            ,##' ,,,,###########################,,,                        '##       
           ' ,,###''''                  '''############,,,                           
         ,,##''                                '''############,,,,        ,,,,,,###''
      ,#''                                            '''#######################'''  
     '                                                          ''''####''''         
             ,#######,   #######,   ,#######,      ##                                
            ,#'     '#,  ##    ##  ,#'     '#,    #''#        ,####,   ,####,        
            ##       ##  ##   ,#'  ##            #'  '#       #'       #'  '#        
            ##       ##  #######   ##           ,######,      #####,   #    #        
            '#,     ,#'  ##    ##  '#,     ,#' ,#      #,     #,   #   #,  ,#        
             '#######'   ##     ##  '#######'  #'      '#     '####' # '####'        



                #########################################################
                #                        -***-                          #
                #          Department of theory and spectroscopy        #
                #                                                       #
                #                      Frank Neese                      #
                #                                                       #
                #     Directorship, Architecture, Infrastructure        #
                #                    SHARK, DRIVERS                     #
                #        Core code/Algorithms in most modules           #
                #                                                       #
                #        Max Planck Institute fuer Kohlenforschung      #
                #                Kaiser Wilhelm Platz 1                 #
                #                 D-45470 Muelheim/Ruhr                 #
                #                      Germany                          #
                #                                                       #
                #                  All rights reserved                  #
                #                        -***-                          #
                #########################################################


                         Program Version 6.0.1  -  RELEASE   -


 With contributions from (in alphabetic order):
[Max-Planck-Institut fuer Kohlenforschung]                               
  Daniel Aravena         : Magnetic Suceptibility                        
  Michael Atanasov       : Ab Initio Ligand Field Theory (pilot matlab implementation)
  Alexander A. Auer      : GIAO ZORA, VPT2 properties, NMR spectrum      
  Ute Becker             : All parallelization in ORCA, NUMFREQ, NUMCALC 
  Giovanni Bistoni       : ED, misc. LED, open-shell LED, HFLD           
  Martin Brehm           : Molecular dynamics                            
  Dmytro Bykov           : pre 5.0 version of the SCF Hessian            
  Marcos Casanova-Páez   : Triplet and SCS-CIS(D). UHF-(DLPNO)-IP/EA/STEOM-CCSD. UHF-CVS-IP/STEOM-CCSD   
  Vijay G. Chilkuri      : MRCI spin determinant printing, contributions to CSF-ICE 
  Pauline Colinet        : FMM embedding                                 
  Dipayan Datta          : RHF DLPNO-CCSD density                        
  Achintya Kumar Dutta   : EOM-CC, STEOM-CC                              
  Nicolas Foglia         : Exact transition moments, OPA infrastructure, MCD improvements    
  Dmitry Ganyushin       : Spin-Orbit,Spin-Spin,Magnetic field MRCI      
  Miquel Garcia-Rates    : C-PCM and meta-GGA Hessian, CCSD/C-PCM, Gaussian charge scheme 
  Tiago L. C. Gouveia    : GS-ROHF, GS-ROCIS                             
  Yang Guo               : DLPNO-NEVPT2, F12-NEVPT2, CIM, IAO-localization        
  Andreas Hansen         : Spin unrestricted coupled pair/coupled cluster methods 
  Ingolf Harden          : AUTO-CI MPn and infrastructure                
  Benjamin Helmich-Paris : MC-RPA, TRAH-(SCF,CASSCF), AVAS, COSX integrals, SCF dyn. polar. 
  Lee Huntington         : MR-EOM, pCC                                   
  Robert Izsak           : Overlap fitted RIJCOSX, COSX-SCS-MP3, EOM     
  Riya Kayal             : Wick's Theorem for AUTO-CI, AUTO-CI UHF-CCSDT 
  Emily Kempfer          : AUTO-CI, RHF CISDT and CCSDT                  
  Christian Kollmar      : KDIIS, OOCD, Brueckner-CCSD(T), CCSD density, CASPT2, CASPT2-K, improved NEVPT2 
  Axel Koslowski         : Symmetry handling                             
  Simone Kossmann        : meta-GGA functionals, TD-DFT gradient, OOMP2, (MP2 Hessian; deprecated post 5.0) 
  Lucas Lang             : DCDCAS                                        
  Marvin Lechner         : AUTO-CI (C++ implementation), FIC-MRCC        
  Spencer Leger          : CASSCF response                               
  Dagmar Lenk            : GEPOL surface, SMD, ORCA-2-JSON               
  Dimitrios Liakos       : Extrapolation schemes; Compound Job, initial MDCI parallelization 
  Dimitrios Manganas     : Further ROCIS development; embedding schemes. LFT, Crystal Embedding 
  Dimitrios Pantazis     : SARC Basis sets                               
  Anastasios Papadopoulos: AUTO-CI, single reference methods and gradients 
  Taras Petrenko         : pre 6.0 DFT Hessian and TD-DFT gradient, (ASA, deprecated), ECA, 1-Electron XAS/XES, NRVS 
  Peter Pinski           : DLPNO-MP2, DLPNO-MP2 Gradient                 
  Christoph Reimann      : Effective Core Potentials                     
  Marius Retegan         : Local ZFS, SOC                                
  Christoph Riplinger    : Optimizer, TS searches, QM/MM, DLPNO-CCSD(T), (RO)-DLPNO pert. Triples 
  Michael Roemelt        : Original ROCIS implementation                 
  Masaaki Saitow         : Open-shell DLPNO-CCSD energy and density      
  Barbara Sandhoefer     : DKH picture change effects                    
  Kantharuban Sivalingam : CASSCF convergence/infrastructure, NEVPT2 and variants, FIC-MRCI 
  Bernardo de Souza      : ESD, SOC TD-DFT                               
  Georgi L. Stoychev     : AutoAux, RI-MP2 NMR, DLPNO-MP2 response, X2C  
  Van Anh Tran           : RI-MP2 g-tensors                              
  Willem Van den Heuvel  : Paramagnetic NMR                              
  Zikuan Wang            : NOTCH, Electric field optimization            
  Frank Wennmohs         : Technical directorship and infrastructure     
  Hang Xu                : AUTO-CI-Response properties                   
                                                                         
[FACCTs GmbH]                                                            
  Markus Bursch, Miquel Garcia-Rates, Christoph Riplinger, Bernardo de Souza, Georgi L. Stoychev 
                                                                 
  APM, Basis sets (HGBS, AHGBS, def-TZVP (Ac-Lr), def2-XVPD (La-Lu)), CI-OPT, improved COSX, DLPNO-Multilevel,           
  DOCKER, DRACO, updates on ESD, GOAT, IRC, LR-CPCM, MBIS, meta-GGA TD-DFT gradient, ML-optimized integration grids, 
  MM, NACMEs, nearIR, NEB, NEB-TS, NL-DFT gradient (VV10), 2- and 3-layer-ONIOM, interface openCOSMO-RS, QMMM,   
  Crystal-QMMM, SF, symmetry and pop. for TD-DFT, r2SCAN hybrids, SOLVATOR                                   
                                                                         
[Other institutions]                                                     
  V. Asgeirsson          : NEB                                           
  Christoph Bannwarth    : sTDA-DFT, sTD-DFT, PBEh-3c, B97-3c, D3        
  Sebastian Ehlert       : rSCAN, r2SCAN, r2SCAN-3c, D4, dhf basis sets  
  Marvin Friede          : D4 for Fr, Ra, Ac-Lr                          
  Lars Goerigk           : TD-DFT with DH, B97 family of functionals     
  Stefan Grimme          : VdW corrections, initial TS optimization, DFT functionals, gCP, sTDA/sTD-DF 
  Waldemar Hujo          : DFT-NL                                        
  H. Jonsson             : NEB                                           
  Holger Kruse           : gCP                                           
  Marcel Mueller         : wB97X-3c, vDZP basis set                      
  Hagen Neugebauer       : wr2SCAN                                       
  Tobias Risthaus        : range-separated hybrid DFT                    
  Lukas Wittmann         : regularized MP2, r2SCAN double-hybrids, wr2SCAN        
                                                                         
We gratefully acknowledge several colleagues who have allowed us to      
interface, adapt or use parts of their codes:                            
  Ed Valeev, F. Pavosevic, A. Kumar             : LibInt (2-el integral package), F12 methods 
  Garnet Chan, S. Sharma, J. Yang, R. Olivares  : DMRG                   
  Ulf Ekstrom                                   : XCFun DFT Library      
  Mihaly Kallay                                 : mrcc  (arbitrary order and MRCC methods)
  Frank Weinhold                                : gennbo (NPA and NBO analysis)           
  Simon Mueller                                 : openCOSMO-RS                            
  Christopher J. Cramer and Donald G. Truhlar   : smd solvation model                     
  S Lehtola, MJT Oliveira, MAL Marques          : LibXC Library                           
  Liviu Ungur et al                             : ANISO software                          


 Your calculation uses the libint2 library for the computation of 2-el integrals
 For citations please refer to: http://libint.valeyev.net

 Your ORCA version has been built with support for libXC version: 6.2.2
 For citations please refer to: https://libxc.gitlab.io

 This ORCA versions uses:
   CBLAS   interface :  Fast vector & matrix operations
   LAPACKE interface :  Fast linear algebra routines
   SCALAPACK package :  Parallel linear algebra routines
   Shared memory     :  Shared parallel matrices
   BLAS/LAPACK       :  OpenBLAS 0.3.27  USE64BITINT DYNAMIC_ARCH NO_AFFINITY Haswell SINGLE_THREADED
        Core in use  :  Haswell
   Copyright (c) 2011-2014, The OpenBLAS Project


NOTE: MaxCore=350 MB was set to SCF,MP2,MDCI,CIPSI,MRCI and CIS
      => If you want to overwrite this, your respective input block should be placed after the MaxCore statement
================================================================================

----- Orbital basis set information -----
Your calculation utilizes the basis: def2-SVP
   F. Weigend and R. Ahlrichs, Phys. Chem. Chem. Phys. 7, 3297 (2005).

----- AuxJ basis set information -----
Your calculation utilizes the AutoAux generation procedure.
  G. L. Stoychev, A. A. Auer, F. Neese, J. Chem. Theory Comput. 13, 554 (2017)

----- AuxC basis set information -----
Your calculation utilizes the AutoAux generation procedure.
  G. L. Stoychev, A. A. Auer, F. Neese, J. Chem. Theory Comput. 13, 554 (2017)

----- AuxJK basis set information -----
Your calculation utilizes the AutoAux generation procedure.
  G. L. Stoychev, A. A. Auer, F. Neese, J. Chem. Theory Comput. 13, 554 (2017)

----- AuxX basis set information -----
Your calculation utilizes the AutoAux generation procedure.
  G. L. Stoychev, A. A. Auer, F. Neese, J. Chem. Theory Comput. 13, 554 (2017)

================================================================================
                                        WARNINGS
                       Please study these warnings very carefully!
================================================================================


WARNING: your system is open-shell and RHF/RKS was chosen
  ===> : WILL SWITCH to UHF/UKS


WARNING: Post HF methods need fully converged wavefunctions
  ===> : Setting SCFConvForced true
         You can overwrite this default with %scf ConvForced false 


WARNING: PNO calculations with unrestricted orbitals require UNOs
  ===> : Switching on UNOs

WARNING: Unrestricted DLPNO-CCSD(T0/T) with FullLMP2-Guess requested.
         This is not yet implemented.
         When comparing energies between closed and open shell calculations:
  ===> : Be aware to set UseFullLMP2Guess to false for the corresponding closed shell calculations.
         Note that UseFullLMP2Guess is done by default only for TightPNO closed shell calculations.


WARNING: MDCI localization with Augmented Hessian Foster-Boys
  ===> : Switching off randomization!

WARNING: UseCISUpdate is  only available for RHF calculations...
  ===> : Setting UseCISUpdate = false 

================================================================================
                                       INPUT FILE
================================================================================
NAME = water_spe_CCSD.inp
|  1> %pal
|  2>   nprocs 4
|  3> end
|  4> 
|  5> %maxcore 350
|  6> 
|  7> ! DLPNO-CCSD def2-SVP
|  8> ! RIJCOSX AutoAux
|  9> 
| 10> * xyz 1 2
| 11> O       -3.21035       -0.58504       -0.01395
| 12> H       -2.24247       -0.61827        0.01848
| 13> H       -3.48920       -1.24911        0.63429
| 14> *
| 15> 
| 16>                          ****END OF INPUT****
================================================================================

                       ****************************
                       * Single Point Calculation *
                       ****************************

---------------------------------
CARTESIAN COORDINATES (ANGSTROEM)
---------------------------------
  O     -3.210350   -0.585040   -0.013950
  H     -2.242470   -0.618270    0.018480
  H     -3.489200   -1.249110    0.634290

----------------------------
CARTESIAN COORDINATES (A.U.)
----------------------------
  NO LB      ZA    FRAG     MASS         X           Y           Z
   0 O     8.0000    0    15.999   -6.066682   -1.105565   -0.026362
   1 H     1.0000    0     1.008   -4.237654   -1.168361    0.034922
   2 H     1.0000    0     1.008   -6.593632   -2.360476    1.198634

--------------------------------
INTERNAL COORDINATES (ANGSTROEM)
--------------------------------
 O      0   0   0     0.000000000000     0.00000000     0.00000000
 H      1   0   0     0.968993102246     0.00000000     0.00000000
 H      1   2   0     0.969000198658   103.97800340     0.00000000

---------------------------
INTERNAL COORDINATES (A.U.)
---------------------------
 O      0   0   0     0.000000000000     0.00000000     0.00000000
 H      1   0   0     1.831131588903     0.00000000     0.00000000
 H      1   2   0     1.831144999180   103.97800340     0.00000000

---------------------
BASIS SET INFORMATION
---------------------
There are 2 groups of distinct atoms

 Group   1 Type O   : 7s4p1d contracted to 3s2p1d pattern {511/31/1}
 Group   2 Type H   : 4s1p contracted to 2s1p pattern {31/1}

Atom   0O    basis set group =>   1
Atom   1H    basis set group =>   2
Atom   2H    basis set group =>   2
---------------------------------
AUXILIARY/J BASIS SET INFORMATION
---------------------------------
There are 2 groups of distinct atoms

 Group   1 Type O   : 14s11p10d2f contracted to 14s11p10d2f pattern {11111111111111/11111111111/1111111111/11}
 Group   2 Type H   : 9s2p1d contracted to 9s2p1d pattern {111111111/11/1}

Atom   0O    basis set group =>   1
Atom   1H    basis set group =>   2
Atom   2H    basis set group =>   2
---------------------------------
AUXILIARY/C BASIS SET INFORMATION
---------------------------------
There are 2 groups of distinct atoms

 Group   1 Type O   : 14s11p10d2f contracted to 14s11p10d2f pattern {11111111111111/11111111111/1111111111/11}
 Group   2 Type H   : 9s2p1d contracted to 9s2p1d pattern {111111111/11/1}

Atom   0O    basis set group =>   1
Atom   1H    basis set group =>   2
Atom   2H    basis set group =>   2
----------------------------------
AUXILIARY/JK BASIS SET INFORMATION
----------------------------------
There are 2 groups of distinct atoms

 Group   1 Type O   : 14s11p10d2f contracted to 14s11p10d2f pattern {11111111111111/11111111111/1111111111/11}
 Group   2 Type H   : 9s2p1d contracted to 9s2p1d pattern {111111111/11/1}

Atom   0O    basis set group =>   1
Atom   1H    basis set group =>   2
Atom   2H    basis set group =>   2
---------------------------------
AUXILIARY/X BASIS SET INFORMATION
---------------------------------
There are 2 groups of distinct atoms

 Group   1 Type O   : 14s11p10d2f contracted to 14s11p10d2f pattern {11111111111111/11111111111/1111111111/11}
 Group   2 Type H   : 9s2p1d contracted to 9s2p1d pattern {111111111/11/1}

Atom   0O    basis set group =>   1
Atom   1H    basis set group =>   2
Atom   2H    basis set group =>   2


           ************************************************************
           *        Program running with 4 parallel MPI-processes     *
           *              working on a common directory               *
           ************************************************************
------------------------------------------------------------------------------
                             ORCA STARTUP CALCULATIONS
                           -- RI-GTO INTEGRALS CHOSEN --
------------------------------------------------------------------------------
------------------------------------------------------------------------------
                   ___                                                        
                  /   \      - P O W E R E D   B Y -                         
                 /     \                                                     
                 |  |  |   _    _      __       _____    __    __             
                 |  |  |  | |  | |    /  \     |  _  \  |  |  /  |          
                  \  \/   | |  | |   /    \    | | | |  |  | /  /          
                 / \  \   | |__| |  /  /\  \   | |_| |  |  |/  /          
                |  |  |   |  __  | /  /__\  \  |    /   |      \           
                |  |  |   | |  | | |   __   |  |    \   |  |\   \          
                \     /   | |  | | |  |  |  |  | |\  \  |  | \   \       
                 \___/    |_|  |_| |__|  |__|  |_| \__\ |__|  \__/        
                                                                              
                      - O R C A' S   B I G   F R I E N D -                    
                                      &                                       
                       - I N T E G R A L  F E E D E R -                       
                                                                              
 v1 FN, 2020, v2 2021, v3 2022-2024                                           
------------------------------------------------------------------------------


----------------------
SHARK INTEGRAL PACKAGE
----------------------

Number of atoms                             ...      3
Number of basis functions                   ...     24
Number of shells                            ...     12
Maximum angular momentum                    ...      2
Integral batch strategy                     ... SHARK/LIBINT Hybrid
RI-J (if used) integral strategy            ... SPLIT-RIJ (Revised 2003 algorithm where possible)
Printlevel                                  ...      1
Contraction scheme used                     ... SEGMENTED contraction
Prescreening option                         ... SCHWARTZ
   Thresh                                   ... 1.000e-10
   Tcut                                     ... 1.000e-11
   Tpresel                                  ... 1.000e-11 
Coulomb Range Separation                    ... NOT USED
Exchange Range Separation                   ... NOT USED
Multipole approximations                    ... NOT USED
Finite Nucleus Model                        ... NOT USED
CABS basis                                  ... NOT available
Auxiliary Coulomb fitting basis             ... AVAILABLE
   # of basis functions in Aux-J            ...    151
   # of shells in Aux-J                     ...     61
   Maximum angular momentum in Aux-J        ...      3
Auxiliary J/K fitting basis                 ... AVAILABLE
   # of basis functions in Aux-JK           ...    151
   # of shells in Aux-JK                    ...     61
   Maximum angular momentum in Aux-JK       ...      3
Auxiliary Correlation fitting basis         ... AVAILABLE
   # of basis functions in Aux-C            ...    151
   # of shells in Aux-C                     ...     61
   Maximum angular momentum in Aux-C        ...      3
Auxiliary 'external' fitting basis          ... NOT available

Checking pre-screening integrals            ... done (  0.0 sec) Dimension = 12
Check shell pair data                       ... done (  0.0 sec)
Shell pair information
Shell pair cut-off parameter TPreSel        ...   1.0e-11
Total number of shell pairs                 ...        78
Shell pairs after pre-screening             ...        78
Total number of primitive shell pairs       ...       272
Primitive shell pairs kept                  ...       265
          la=0 lb=0:     28 shell pairs
          la=1 lb=0:     28 shell pairs
          la=1 lb=1:     10 shell pairs
          la=2 lb=0:      7 shell pairs
          la=2 lb=1:      4 shell pairs
          la=2 lb=2:      1 shell pairs

Calculating one electron integrals          ... done (  0.0 sec)
Calculating RI/J V-Matrix + Cholesky decomp.... done (  0.0 sec)
Calculating RI/JK V-Matrix + Cholesky decomp... done (  0.0 sec)
Calculating RI/C V-Matrix + Cholesky decomp.... done (  0.0 sec)
Calculating Nuclear repulsion               ... done (  0.0 sec) ENN=      9.084297099237 Eh

Diagonalization of the overlap matrix:
Smallest eigenvalue                        ... 3.830e-02
Time for diagonalization                   ...    0.000 sec
Threshold for overlap eigenvalues          ... 1.000e-07
Number of eigenvalues below threshold      ... 0
Time for construction of square roots      ...    0.000 sec
Total time needed                          ...    0.001 sec

-------------------
DFT GRID GENERATION
-------------------

General Integration Accuracy     IntAcc      ... 4.388
Radial Grid Type                 RadialGrid  ... OptM3 with GC (2021)
Angular Grid (max. ang.)         AngularGrid ... 4 (Lebedev-302)
Angular grid pruning method      GridPruning ... 4 (adaptive)
Weight generation scheme         WeightScheme... mBecke (2022)
Basis function cutoff            BFCut       ... 1.0000e-10
Integration weight cutoff        WCut        ... 1.0000e-14
Partially contracted basis set               ... off
Rotationally invariant grid construction     ... off
Angular grids for H and He will be reduced by one unit

Total number of grid points                  ...    12750
Total number of batches                      ...      201
Average number of points per batch           ...       63
Average number of grid points per atom       ...     4250

--------------------
COSX GRID GENERATION
--------------------

GRIDX 1
-------
General Integration Accuracy     IntAcc      ... 3.816
Radial Grid Type                 RadialGrid  ... OptM3 with GC (2021)
Angular Grid (max. ang.)         AngularGrid ... 1 (Lebedev-50)
Angular grid pruning method      GridPruning ... 4 (adaptive)
Weight generation scheme         WeightScheme... mBecke (2022)
Basis function cutoff            BFCut       ... 1.0000e-10
Integration weight cutoff        WCut        ... 1.0000e-14
Partially contracted basis set               ... on
Rotationally invariant grid construction     ... off
Angular grids for H and He will be reduced by one unit

Total number of grid points                  ...     1658
Total number of batches                      ...       14
Average number of points per batch           ...      118
Average number of grid points per atom       ...      553
UseSFitting                                  ... on

GRIDX 2
-------
General Integration Accuracy     IntAcc      ... 4.020
Radial Grid Type                 RadialGrid  ... OptM3 with GC (2021)
Angular Grid (max. ang.)         AngularGrid ... 2 (Lebedev-110)
Angular grid pruning method      GridPruning ... 4 (adaptive)
Weight generation scheme         WeightScheme... mBecke (2022)
Basis function cutoff            BFCut       ... 1.0000e-10
Integration weight cutoff        WCut        ... 1.0000e-14
Partially contracted basis set               ... on
Rotationally invariant grid construction     ... off
Angular grids for H and He will be reduced by one unit

Total number of grid points                  ...     3504
Total number of batches                      ...       30
Average number of points per batch           ...      116
Average number of grid points per atom       ...     1168
UseSFitting                                  ... on

GRIDX 3
-------
General Integration Accuracy     IntAcc      ... 4.338
Radial Grid Type                 RadialGrid  ... OptM3 with GC (2021)
Angular Grid (max. ang.)         AngularGrid ... 3 (Lebedev-194)
Angular grid pruning method      GridPruning ... 4 (adaptive)
Weight generation scheme         WeightScheme... mBecke (2022)
Basis function cutoff            BFCut       ... 1.0000e-10
Integration weight cutoff        WCut        ... 1.0000e-14
Partially contracted basis set               ... on
Rotationally invariant grid construction     ... off
Angular grids for H and He will be reduced by one unit

Total number of grid points                  ...     7763
Total number of batches                      ...       62
Average number of points per batch           ...      125
Average number of grid points per atom       ...     2588
UseSFitting                                  ... on
Initializing property integral containers    ... done (  0.0 sec)

SHARK setup successfully completed in   0.1 seconds

Maximum memory used throughout the entire STARTUP-calculation: 7.6 MB


           ************************************************************
           *        Program running with 4 parallel MPI-processes     *
           *              working on a common directory               *
           ************************************************************
-------------------------------------------------------------------------------
                                 ORCA GUESS
                   Start orbitals & Density for SCF / CASSCF
-------------------------------------------------------------------------------

------------
SCF SETTINGS
------------
Hamiltonian:
 Ab initio Hamiltonian  Method          .... Hartree-Fock(GTOs)
 RI-approximation to the Coulomb term is turned on
   Number of AuxJ basis functions       .... 151
   RIJ-COSX (HFX calculated with COS-X)).... on


General Settings:
 Integral files         IntName         .... water_spe_CCSD
 Hartree-Fock type      HFTyp           .... UHF
 Total Charge           Charge          ....    1
 Multiplicity           Mult            ....    2
 Number of Electrons    NEL             ....    9
 Basis Dimension        Dim             ....   24
 Nuclear Repulsion      ENuc            ....      9.0842970992 Eh

Convergence Acceleration:
 AO-DIIS                CNVDIIS         .... on
   Start iteration      DIISMaxIt       ....    12
   Startup error        DIISStart       ....  0.200000
   # of expansion vecs  DIISMaxEq       ....     5
   Bias factor          DIISBfac        ....   1.050
   Max. coefficient     DIISMaxC        ....  10.000
 MO-DIIS                CNVKDIIS        .... off
 Trust-Rad. Augm. Hess. CNVTRAH         .... auto
   Auto Start mean grad. ratio tolernc. ....  1.125000
   Auto Start start iteration           ....    50
   Auto Start num. interpolation iter.  ....    10
   Max. Number of Micro iterations      ....    24
   Max. Number of Macro iterations      .... Maxiter - #DIIS iter
   Number of Davidson start vectors     ....     2
   Converg. threshold    (grad. norm)   ....   5.000e-05
   Grad. Scal. Fac. for Micro threshold ....   0.100
   Minimum threshold for Micro iter.    ....   1.000e-02
   NR start threshold (gradient norm)   ....   1.000e-04
   Initial trust radius                 ....   0.400
   Minimum AH scaling param. (alpha)    ....   1.000
   Maximum AH scaling param. (alpha)    .... 1000.000
   Quad. conv. algorithm                .... NR
   White noise on init. David. guess    .... on
   Maximum white noise                  ....   0.010
   Pseudo random numbers                .... off
   Inactive MOs                         .... canonical
   Orbital update algorithm             .... Taylor
   Preconditioner                       .... Diag
   Full preconditioner red. dimension   ....   250
 SOSCF                  CNVSOSCF        .... on
   Start iteration      SOSCFMaxIt      ....   150
   Startup grad/error   SOSCFStart      ....  0.003300
   Hessian update       SOSCFHessUp     .... L-BFGS
 Level Shifting         CNVShift        .... on
   Level shift para.    LevelShift      ....    0.2500
   Turn off err/grad.   ShiftErr        ....    0.0010
 Zerner damping         CNVZerner       .... off
 Static damping         CNVDamp         .... on
   Fraction old density DampFac         ....    0.7000
   Max. Damping (<1)    DampMax         ....    0.9800
   Min. Damping (>=0)   DampMin         ....    0.0000
   Turn off err/grad.   DampErr         ....    0.1000

SCF Procedure:
 Maximum # iterations   MaxIter         ....   125
 SCF integral mode      SCFMode         .... Direct
   Integral package                     .... SHARK and LIBINT hybrid scheme
 Reset frequency        DirectResetFreq ....    20
 Integral Threshold     Thresh          ....  1.000e-10 Eh
 Primitive CutOff       TCut            ....  1.000e-11 Eh

Convergence Tolerance:
 Convergence Check Mode ConvCheckMode   .... Total+1el-Energy
 Convergence forced     ConvForced      .... 1
 Energy Change          TolE            ....  1.000e-06 Eh
 1-El. energy change                    ....  1.000e-03 Eh
 Orbital Gradient       TolG            ....  5.000e-05
 Orbital Rotation angle TolX            ....  5.000e-05
 DIIS Error             TolErr          ....  1.000e-06

------------------------------
INITIAL GUESS: MODEL POTENTIAL
------------------------------
Loading Hartree-Fock densities                     ... done
Calculating cut-offs                               ... done
Initializing the effective Hamiltonian             ... done
Setting up the integral package (SHARK)            ... done
Starting the Coulomb interaction                   ... done (   0.0 sec)
Making the grid                                    ... done (   0.0 sec)
Mapping shells                                     ... done
Starting the XC term evaluation                    ... done (   0.0 sec)
Transforming the Hamiltonian                       ... done (   0.0 sec)
Diagonalizing the Hamiltonian                      ... done (   0.0 sec)
Back transforming the eigenvectors                 ... done (   0.0 sec)
Now organizing SCF variables                       ... done
                      ------------------
                      INITIAL GUESS DONE (   0.0 sec)
                      ------------------
             **** ENERGY FILE WAS UPDATED (water_spe_CCSD.en.tmp) ****
Finished Guess after   0.1 sec
Maximum memory used throughout the entire GUESS-calculation: 4.2 MB


           ************************************************************
           *        Program running with 4 parallel MPI-processes     *
           *              working on a common directory               *
           ************************************************************

-------------------------------------------------------------------------------------------
                                      ORCA LEAN-SCF
                              memory conserving SCF solver
-------------------------------------------------------------------------------------------

----------------------------------------D-I-I-S--------------------------------------------
Iteration    Energy (Eh)           Delta-E    RMSDP     MaxDP     DIISErr   Damp  Time(sec)
-------------------------------------------------------------------------------------------
               ***  Starting incremental Fock matrix formation  ***
    1    -75.5460638454898401     0.00e+00  1.19e-03  9.12e-03  6.40e-02  0.700   0.1
    2    -75.5502986133035961    -4.23e-03  1.03e-03  7.64e-03  4.95e-02  0.700   0.0
                               ***Turning on AO-DIIS***
    3    -75.5535402879914955    -3.24e-03  9.18e-04  6.59e-03  3.78e-02  0.700   0.0
    4    -75.5559781871674545    -2.44e-03  2.44e-03  1.83e-02  2.73e-02  0.000   0.0
    5    -75.5627404653869235    -6.76e-03  3.49e-04  3.15e-03  3.51e-03  0.000   0.0
                              *** Initializing SOSCF ***
---------------------------------------S-O-S-C-F--------------------------------------
Iteration    Energy (Eh)           Delta-E    RMSDP     MaxDP     MaxGrad    Time(sec)
--------------------------------------------------------------------------------------
    6    -75.5628255248614948    -8.51e-05  3.01e-04  2.75e-03  2.51e-03     0.0
               *** Restarting incremental Fock matrix formation ***
    7    -75.5630137488166156    -1.88e-04  8.91e-05  8.35e-04  9.75e-04     0.0
    8    -75.5630214754650353    -7.73e-06  1.66e-04  1.49e-03  6.48e-04     0.0
    9    -75.5630269417588636    -5.47e-06  1.52e-05  1.21e-04  1.72e-04     0.0
   10    -75.5630270308982119    -8.91e-08  2.58e-06  1.93e-05  5.32e-05     0.0
                 **** Energy Check signals convergence ****

               *****************************************************
               *                     SUCCESS                       *
               *           SCF CONVERGED AFTER  10 CYCLES          *
               *****************************************************

Recomputing exchange energy using gridx3       ... done (    0.033 sec)
Old exchange energy                            :     -8.631239137 Eh
New exchange energy                            :     -8.631367685 Eh
Exchange energy change after final integration :     -0.000128549 Eh
Total energy after final integration           :    -75.563155580 Eh
             **** ENERGY FILE WAS UPDATED (water_spe_CCSD.en.tmp) ****

----------------
TOTAL SCF ENERGY
----------------

Total Energy       :        -75.56315557981121 Eh           -2056.17800 eV

Components:
Nuclear Repulsion  :          9.08429709923720 Eh             247.19629 eV
Electronic Energy  :        -84.64732413013542 Eh           -2303.37079 eV
One Electron Energy:       -117.79646532327925 Eh           -3205.40478 eV
Two Electron Energy:         33.14914119314383 Eh             902.03399 eV

Virial components:
Potential Energy   :       -151.08069093959523 Eh           -4111.11461 eV
Kinetic Energy     :         75.51753535978403 Eh            2054.93661 eV
Virial Ratio       :          2.00060410101852

---------------
SCF CONVERGENCE
---------------

  Last Energy change         ...    8.9139e-08  Tolerance :   1.0000e-06
  Last MAX-Density change    ...    1.9326e-05  Tolerance :   1.0000e-05
  Last RMS-Density change    ...    2.5766e-06  Tolerance :   1.0000e-06
  Last DIIS Error            ...    2.5131e-03  Tolerance :   1.0000e-06
  Last Orbital Gradient      ...    5.3249e-05  Tolerance :   5.0000e-05
  Last Orbital Rotation      ...    2.5720e-05  Tolerance :   5.0000e-05


----------------------
UHF SPIN CONTAMINATION
----------------------

Expectation value of <S**2>     :     0.756453
Ideal value S*(S+1) for S=0.5   :     0.750000
Deviation                       :     0.006453

----------------
ORBITAL ENERGIES
----------------
                 SPIN UP ORBITALS
  NO   OCC          E(Eh)            E(eV) 
   0   1.0000     -21.131828      -575.0263 
   1   1.0000      -1.886923       -51.3458 
   2   1.0000      -1.213737       -33.0275 
   3   1.0000      -1.132609       -30.8198 
   4   1.0000      -1.096594       -29.8398 
   5   0.0000      -0.146444        -3.9849 
   6   0.0000      -0.062549        -1.7020 
   7   0.0000       0.390251        10.6193 
   8   0.0000       0.451715        12.2918 
   9   0.0000       0.675983        18.3944 
  10   0.0000       0.733013        19.9463 
  11   0.0000       0.841344        22.8941 
  12   0.0000       0.896605        24.3979 
  13   0.0000       1.155814        31.4513 
  14   0.0000       1.225957        33.3600 
  15   0.0000       1.362782        37.0832 

                 SPIN DOWN ORBITALS
  NO   OCC          E(Eh)            E(eV) 
   0   1.0000     -21.085582      -573.7679 
   1   1.0000      -1.732045       -47.1313 
   2   1.0000      -1.175065       -31.9751 
   3   1.0000      -1.043803       -28.4033 
   4   0.0000      -0.314009        -8.5446 
   5   0.0000      -0.133116        -3.6223 
   6   0.0000      -0.054106        -1.4723 
   7   0.0000       0.388669        10.5762 
   8   0.0000       0.470065        12.7911 
   9   0.0000       0.757954        20.6250 
  10   0.0000       0.859804        23.3965 
  11   0.0000       0.873500        23.7691 
  12   0.0000       0.929010        25.2797 
  13   0.0000       1.187105        32.3028 
  14   0.0000       1.244798        33.8727 
*Only the first 10 virtual orbitals were printed.

                    ********************************
                    * MULLIKEN POPULATION ANALYSIS *
                    ********************************

--------------------------------------------
MULLIKEN ATOMIC CHARGES AND SPIN POPULATIONS
--------------------------------------------
   0 O :    0.363047    1.095172
   1 H :    0.318445   -0.047582
   2 H :    0.318508   -0.047590
Sum of atomic charges         :    1.0000000
Sum of atomic spin populations:    1.0000000

-----------------------------------------------------
MULLIKEN REDUCED ORBITAL CHARGES AND SPIN POPULATIONS
-----------------------------------------------------
CHARGE
  0 O s       :     3.713891  s :     3.713891
      pz      :     1.241812  p :     3.910607
      px      :     1.414306
      py      :     1.254489
      dz2     :     0.001818  d :     0.012455
      dxz     :     0.000739
      dyz     :     0.004414
      dx2y2   :     0.004720
      dxy     :     0.000763

  1 H s       :     0.606020  s :     0.606020
      pz      :     0.010680  p :     0.075535
      px      :     0.053976
      py      :     0.010878

  2 H s       :     0.605962  s :     0.605962
      pz      :     0.027206  p :     0.075531
      px      :     0.020104
      py      :     0.028221


SPIN
  0 O s       :     0.048725  s :     0.048725
      pz      :     0.517419  p :     1.046977
      px      :     0.035341
      py      :     0.494217
      dz2     :     0.000196  d :    -0.000531
      dxz     :     0.000132
      dyz     :    -0.000714
      dx2y2   :    -0.000272
      dxy     :     0.000127

  1 H s       :    -0.053028  s :    -0.053028
      pz      :     0.003097  p :     0.005446
      px      :    -0.000571
      py      :     0.002920

  2 H s       :    -0.053036  s :    -0.053036
      pz      :     0.003157  p :     0.005446
      px      :    -0.000694
      py      :     0.002983



                     *******************************
                     * LOEWDIN POPULATION ANALYSIS *
                     *******************************

-------------------------------------------
LOEWDIN ATOMIC CHARGES AND SPIN POPULATIONS
-------------------------------------------
   0 O :    0.592571    1.017836
   1 H :    0.203716   -0.008915
   2 H :    0.203713   -0.008922

----------------------------------------------------
LOEWDIN REDUCED ORBITAL CHARGES AND SPIN POPULATIONS
----------------------------------------------------
CHARGE
  0 O s       :     3.455650  s :     3.455650
      pz      :     1.241036  p :     3.932385
      px      :     1.436267
      py      :     1.255082
      dz2     :     0.002747  d :     0.019395
      dxz     :     0.000839
      dyz     :     0.006746
      dx2y2   :     0.008187
      dxy     :     0.000875

  1 H s       :     0.627304  s :     0.627304
      pz      :     0.026649  p :     0.168980
      px      :     0.115407
      py      :     0.026925

  2 H s       :     0.627306  s :     0.627306
      pz      :     0.065017  p :     0.168980
      px      :     0.036774
      py      :     0.067190


SPIN
  0 O s       :     0.025900  s :     0.025900
      pz      :     0.497389  p :     0.993350
      px      :     0.021358
      py      :     0.474602
      dz2     :    -0.000122  d :    -0.001413
      dxz     :    -0.000024
      dyz     :    -0.000504
      dx2y2   :    -0.000732
      dxy     :    -0.000030

  1 H s       :    -0.035451  s :    -0.035451
      pz      :     0.010568  p :     0.026536
      px      :     0.005921
      py      :     0.010048

  2 H s       :    -0.035458  s :    -0.035458
      pz      :     0.013323  p :     0.026536
      px      :     0.000273
      py      :     0.012940



                      *****************************
                      * MAYER POPULATION ANALYSIS *
                      *****************************

  NA   - Mulliken gross atomic population
  ZA   - Total nuclear charge
  QA   - Mulliken gross atomic charge
  VA   - Mayer's total valence
  BVA  - Mayer's bonded valence
  FA   - Mayer's free valence

  ATOM       NA         ZA         QA         VA         BVA        FA
  0 O      7.6370     8.0000     0.3630     2.7939     1.8102     0.9837
  1 H      0.6816     1.0000     0.3184     0.9206     0.9175     0.0032
  2 H      0.6815     1.0000     0.3185     0.9206     0.9174     0.0032

  Mayer bond orders larger than 0.100000
B(  0-O ,  1-H ) :   0.9051 B(  0-O ,  2-H ) :   0.9051 

             ***UHF Natural Spin-Orbitals were saved in water_spe_CCSD.unso***
                ***UHF Natural Orbitals were saved in water_spe_CCSD.uno***
QR-MO GENERATION
 Dim     =   24
 Mult    =    2
 NEl     =    9
 N(DOMO) =    4
 N(SOMO) =    1
 N(VMO)  =   19

                ***Quasi-Restricted Orbitals were saved in water_spe_CCSD.qro***

Orbital Energies of Quasi-Restricted MO's
   0( 2) :   -21.085565 a.u.  -573.767 eV
   1( 2) :    -1.729348 a.u.   -47.058 eV
   2( 2) :    -1.174433 a.u.   -31.958 eV
   3( 2) :    -1.043397 a.u.   -28.392 eV
   4( 1) :    -0.699887 a.u.   -19.045 eV alpha=  -30.820 beta=   -7.270
   5( 0) :    -0.146952 a.u.    -3.999 eV
   6( 0) :    -0.062844 a.u.    -1.710 eV
   7( 0) :     0.390039 a.u.    10.613 eV
   8( 0) :     0.450862 a.u.    12.269 eV
   9( 0) :     0.675983 a.u.    18.394 eV
  10( 0) :     0.732704 a.u.    19.938 eV
  11( 0) :     0.841251 a.u.    22.892 eV
  12( 0) :     0.896602 a.u.    24.398 eV
  13( 0) :     1.155814 a.u.    31.451 eV
  14( 0) :     1.225778 a.u.    33.355 eV
  15( 0) :     1.362782 a.u.    37.083 eV
  16( 0) :     1.644754 a.u.    44.756 eV
  17( 0) :     2.077133 a.u.    56.522 eV
  18( 0) :     2.085861 a.u.    56.759 eV
  19( 0) :     2.760040 a.u.    75.105 eV
  20( 0) :     2.809296 a.u.    76.445 eV
  21( 0) :     3.051907 a.u.    83.047 eV
  22( 0) :     3.350785 a.u.    91.179 eV
  23( 0) :     3.732204 a.u.   101.558 eV
-------
TIMINGS
-------

Total SCF time: 0 days 0 hours 0 min 1 sec 

Total time                  ....       1.430 sec
Sum of individual times     ....       1.419 sec  ( 99.2%)

SCF preparation             ....       0.933 sec  ( 65.2%)
Fock matrix formation       ....       0.408 sec  ( 28.5%)
  Startup                   ....       0.005 sec  (  1.2% of F)
  Split-RI-J                ....       0.022 sec  (  5.4% of F)
  Chain of spheres X        ....       0.372 sec  ( 91.2% of F)
Diagonalization             ....       0.000 sec  (  0.0%)
Density matrix formation    ....       0.008 sec  (  0.6%)
Total Energy calculation    ....       0.009 sec  (  0.6%)
Population analysis         ....       0.012 sec  (  0.8%)
Orbital Transformation      ....       0.006 sec  (  0.4%)
Orbital Orthonormalization  ....       0.000 sec  (  0.0%)
DIIS solution               ....       0.031 sec  (  2.2%)
SOSCF solution              ....       0.012 sec  (  0.8%)
Finished LeanSCF after   1.4 sec

Maximum memory used throughout the entire LEANSCF-calculation: 3.9 MB


           ************************************************************
           *        Program running with 4 parallel MPI-processes     *
           *              working on a common directory               *
           ************************************************************

------------------------------------------------------------------------------
                         ORCA PROPERTY INTEGRAL CALCULATIONS
------------------------------------------------------------------------------

GBWName                                   ... water_spe_CCSD.gbw
Number of atoms                           ...      3
Number of basis functions                 ...     24
Max core memory                           ...    350 MB

Dipole integrals                          ... YES
Quadrupole integrals                      ...  NO
Linear momentum integrals                 ... YES
Angular momentum integrals                ... YES
Higher moments length integrals           ...  NO
Higher moments velocity integrals         ...  NO
Kinetic energy integrals                  ...  NO
GIAO right hand sides                     ...  NO
GIAO dipole derivative integrals          ...  NO
SOC integrals                             ...  NO
EPR diamagnetic integrals (GIAO)          ...  NO
EPR gauge integrals                       ...  NO
Field gradient integrals                  ...  NO (   0 nuclei)
Spin-dipole/Fermi contact integrals       ...  NO (   0 nuclei)
Contact density integrals                 ...  NO (   0 nuclei)
Nucleus-orbit integrals                   ...  NO (   0 nuclei)
Geometric perturbations                   ...  NO (   3 nuclei)

Choice of electric origin   ... Center of mass
Position of electric origin ... ( -5.9938, -1.1793,  0.0456) 
Choice of magnetic origin   ... GIAO
Position of magnetic origin ... (  0.0000,  0.0000,  0.0000) 

Calculating integrals                     ... Electric Dipole (Length)     done (  0.0 sec)
Calculating integrals                     ... Linear Momentum              done (  0.0 sec)
Calculating integrals                     ... Angular Momentum  (ElOri)    done (  0.0 sec)

Property integrals calculated in   0.0 sec

Maximum memory used throughout the entire PROPINT-calculation: 4.4 MB


           ************************************************************
           *        Program running with 4 parallel MPI-processes     *
           *              working on a common directory               *
           ************************************************************
Warning: The program was called with UseRHFInts=true. This is deprecated now and will be ignored - sorry!
         your calculation will be ok, but may produce a slightly different result from earlier ORCA versions
Warning: The code was about to set UseRHFInts to true, but this feature is now deprecated


--------------------------------------------------------------------------------
                             ORCA-MATRIX DRIVEN CI
--------------------------------------------------------------------------------


Wavefunction type
-----------------
Correlation treatment                      ...      CCSD     
Single excitations                         ... ON
Orbital optimization                       ... OFF
Calculation of Z vector                    ... OFF
Calculation of Brueckner orbitals          ... OFF
Perturbative triple excitations            ... OFF
Calculation of F12 correction              ... OFF
Frozen core treatment                      ... chemical core (2 el)
Reference Wavefunction                     ... UHF
  Alpha-MOs occ    :     1 ...    4 (  4 MO's/  4 electrons)
  Beta-MOs occ     :     1 ...    3 (  3 MO's/  3 electrons)
  Alpha-MOs virt   :     5 ...   23 ( 19 MO's              )
  Beta-MOs virt    :     4 ...   23 ( 20 MO's              )
  Quasi restricted orbitals will be used (this is similar to a ROHF determinant)
Number of AO's                             ...     24
Number of electrons                        ...      9
Number of correlated electrons             ...      7

Algorithmic settings
--------------------
Integral transformation                    ... All integrals via the RI transformation
K(C) Formation                             ... RI-DLPNO
   PNO-Integral Storage                    ... ON DISK
   PNO occupation number cut-off           ... 3.330e-07
   Singles PNO occupation number cut-off   ... 9.990e-09
   PNO Mulliken prescreening cut-off       ... 1.000e-03
   Domain cut-off (Mulliken population)    ... 1.000e-03
   PNO Normalization                       ...    1
Maximum number of iterations               ...        50
Convergence tolerance (max. residuum)      ... 2.500e-05
Level shift for amplitude update           ... 2.000e-01
Maximum number of DIIS vectors             ...         7
DIIS turned on at iteration                ...         0
Damping before turning on DIIS             ...     0.500
Damping after turning on DIIS              ...     0.000
Pair specific amplitude update             ... OFF
Natural orbital iterations                 ... OFF
Perturbative natural orbital generation    ... OFF
Printlevel                                 ... 2

Singles Fock matrix elements calculated using PNOs.

Memory handling:
----------------
Maximum memory for working arrays          ...    350 MB
Data storage in matrix containers          ... UNCOMPRESSED
Data type for integral storage             ... DOUBLE
In-Core Storage of quantities:
   Amplitudes+Sigma Vector      ... NO
   J+K operators                ... NO
   DIIS vectors                 ... NO
   3-external integrals         ... NO
   4-external integrals         ... NO

Localization treatment:
-----------------------
Localization option                        ...    6
Localization threshhold                    ... -1.0e+00
Using relative localization threshhold     ... 1.0e-08
Neglect threshold for strong pairs         ... 1.000e-04 Eh
Prescreening threshold for very weak pairs ... 1.000e-06 Eh

Initializing the integral package          ... done
Localizing the valence QROs
------------------------------------------------------------------------------
                           ORCA ORBITAL LOCALIZATION
------------------------------------------------------------------------------

Input orbitals are from                  ... water_spe_CCSD.qro
Output orbitals are to                   ... water_spe_CCSD.loc
Max. number of iterations                ... 128
Localizations seeded randomly            ... off
Convergence tolerance                    ... 1.000e-06
Using relative localization threshhold   ... 1.000e-08
Threshold for strong local MOs           ... 9.500e-01
Threshold for bond MOs                   ... 8.500e-01
Operator                                 ... 0
Orbital range for localization           ... 1 to 3
Localization criterion                   ... FOSTER-BOYS (AUGMENTED HESSIAN)
Doing the dipole integrals     ... o.k.
Initial value of the localization sum :     0.410574
ITERATION   0 : L=    1.9555902163 DL=  1.55e+00 (AVERGE_DL)=    0.7176387711 
ITERATION   1 : L=    1.9694438775 DL=  1.39e-02 (AVERGE_DL)=    0.0679550373 
ITERATION   2 : L=    1.9694639791 DL=  2.01e-05 (AVERGE_DL)=    0.0025885379 
ITERATION   3 : L=    1.9694650018 DL=  1.02e-06 (AVERGE_DL)=    0.0005838599 
ITERATION   4 : L=    1.9694650188 DL=  1.70e-08 (AVERGE_DL)=    0.0000752905 
LOCALIZATION SUM CONVERGED

------------------------------------------------------
AUGMENTED HESSIAN OPTIMIZATION OF FOSTER-BOYS ORBITALS
------------------------------------------------------

Spin operator:           0
Orbital window:          1 to 3
Number of iterations:    128
Gradient tolerance:      1.000e-06
Number of pairs:         3
Davidson threshold:      2000
Diagonalization method:  LAPACK
Iter:    0   L: 1.9694650188   Grad. norm: 6.702339e-05
   *** Likely close to a maximum now. ***
       Augmented Hessian eigenvalues:  8.47e-10 -4.38e+00 -7.71e+00 -9.01e+00
Iter:    1   L: 1.9694650192   Grad. norm: 1.440916e-10
LOCALIZATION HAS CONVERGED.

Eigenvalues of the Hessian:
  0 -4.378e+00
  1 -7.711e+00
  2 -9.007e+00


--------------------------------------------------------------------------------
                    LOCALIZED MOLECULAR ORBITAL COMPOSITIONS
--------------------------------------------------------------------------------

The Mulliken populations for each LMO on each atom are computed
The LMO`s will be ordered according to atom index and type
  (A) Strongly localized MO`s have populations of >=0.950 on one atom
  (B) Two center bond orbitals have populations of >=0.850 on two atoms
  (C) Other MO`s are considered to be `delocalized`

FOUND  -   1 strongly local MO`s
       -   2 two center bond MO`s
       -   0 significantly delocalized MO`s

Rather strongly localized orbitals:
MO   1:   0O  -   1.004535
Bond-like localized orbitals:
MO   3:   2H  -   0.339138  and   0O  -   0.660318
MO   2:   1H  -   0.339176  and   0O  -   0.660283
Localized MO's were stored in: water_spe_CCSD.loc

------------------------------------------------------------------------------
                           ORCA ORBITAL LOCALIZATION
------------------------------------------------------------------------------

Input orbitals are from                  ... water_spe_CCSD.loc
Output orbitals are to                   ... water_spe_CCSD.loc
Max. number of iterations                ... 128
Localizations seeded randomly            ... off
Convergence tolerance                    ... 1.000e-06
Using relative localization threshhold   ... 1.000e-08
Threshold for strong local MOs           ... 9.500e-01
Threshold for bond MOs                   ... 8.500e-01
Operator                                 ... 0
Orbital range for localization           ... 4 to 4
Localization criterion                   ... FOSTER-BOYS (AUGMENTED HESSIAN)
Doing the dipole integrals     ... o.k.

ORCA_LOC: ONLY ONE ORBITAL - SKIPPING LOCALIZATION


--------------------------------------------------------------------------------
                    LOCALIZED MOLECULAR ORBITAL COMPOSITIONS
--------------------------------------------------------------------------------

The Mulliken populations for each LMO on each atom are computed
The LMO`s will be ordered according to atom index and type
  (A) Strongly localized MO`s have populations of >=0.950 on one atom
  (B) Two center bond orbitals have populations of >=0.850 on two atoms
  (C) Other MO`s are considered to be `delocalized`

FOUND  -   1 strongly local MO`s
       -   0 two center bond MO`s
       -   0 significantly delocalized MO`s

Rather strongly localized orbitals:
MO   4:   0O  -   0.986684
Localized MO's were stored in: water_spe_CCSD.loc

Localizing the core orbitals
------------------------------------------------------------------------------
                           ORCA ORBITAL LOCALIZATION
------------------------------------------------------------------------------

Input orbitals are from                  ... water_spe_CCSD.loc
Output orbitals are to                   ... water_spe_CCSD.loc
Max. number of iterations                ... 128
Localizations seeded randomly            ... off
Convergence tolerance                    ... 1.000e-06
Using relative localization threshhold   ... 1.000e-08
Threshold for strong local MOs           ... 9.500e-01
Threshold for bond MOs                   ... 8.500e-01
Operator                                 ... 0
Orbital range for localization           ... 0 to 0
Localization criterion                   ... FOSTER-BOYS (AUGMENTED HESSIAN)
Doing the dipole integrals     ... o.k.

ORCA_LOC: ONLY ONE ORBITAL - SKIPPING LOCALIZATION


--------------------------------------------------------------------------------
                    LOCALIZED MOLECULAR ORBITAL COMPOSITIONS
--------------------------------------------------------------------------------

The Mulliken populations for each LMO on each atom are computed
The LMO`s will be ordered according to atom index and type
  (A) Strongly localized MO`s have populations of >=0.950 on one atom
  (B) Two center bond orbitals have populations of >=0.850 on two atoms
  (C) Other MO`s are considered to be `delocalized`

FOUND  -   1 strongly local MO`s
       -   0 two center bond MO`s
       -   0 significantly delocalized MO`s

Rather strongly localized orbitals:
MO   0:   0O  -   1.000397
Localized MO's were stored in: water_spe_CCSD.loc

Re-Reading QRO orbitals for the actual calculation
  ... duplicating orbitals and energies 
  ... adjusting occupation numbers
Warning: reference  - re-canonicalizations have been set to INT 1 VIRT 1
Warning: internal orbitals are localized - no re-canonicalization of internal orbitals
Warning: UsePNO is turned on - no re-canonicalization of internal and virtual orbitals
Fock densities were made 

--------------
DLPNO SETTINGS
--------------

TCutMKN:           1.000e-03
TCutPAO:           1.000e-03
TCutPNO:           3.330e-07
TCutPNOSingles:    9.990e-09
TCutPAOExt:        1.000e-01
TCutPairs:         1.000e-04
TCutPre:           1.000e-06
TCutDOij:          1.000e-05
PAO overlap thresh 1.000e-08
Number of singly-occupied orbitals: 1
Using PNOs for Singles Fock computation
--------------------------
Dim 24, Dim + NT + NS 25
Reading one-electron matrix from water_spe_CCSD.H.tmp ...done
Entering RIJCOSX section for the open-shell Fock matrices
Calculating the full J-matrix                     ... done
Calculating all K-matrices                        ... done
RIJCOSX finished
Reference energy                           ...    -75.558526644
Calculating differential overlap integrals (occ,PAO) ... ok
 >> Construction of the PNO with the Koopmans (K)-matrix << 
Entering the RI transformation section

-----------------
RI-TRANSFORMATION (AUX index driven)
-----------------

Dimension of the orbital-basis         ... 24
Dimension of the aux-basis             ... 151
Transformation of internal MOs         ...    4-   4
Number Format for Storage              ... Double (8 Byte)
Integral mode                          ... Direct

First Phase: integral generation and transformation of MO indices
  Aux angular momentum 0               ... done (    0.027 sec)
  Aux angular momentum 1               ... done (    0.026 sec)
  Aux angular momentum 2               ... done (    0.000 sec)
  Aux angular momentum 3               ... done (    0.015 sec)
Closing buffer VIJ ( 0.00 GB; CompressionRatio= 0.40)
  Phase 1 completed in     0.142 sec
Second Phase: sorting and transformation of aux index

IJ-Transformation
Memory available                       ... 350 MB 
Max. # MO pairs treated in a batch     ... 1    
# of internal orbitals                 ... 1
# batches for internal orbitals        ... 1
Closing buffer IJV ( 0.00 GB; CompressionRatio= 0.99)
(ij|v) transformation done in     0.000 sec

  Phase 2 completed in     0.001 sec
RI-Integral transformation completed in     0.143 sec

-----------------------
RI-FORMATION OF (ij|kl)
-----------------------

Max core memory to be used            ... 350 MB
Memory needed per MO pair             ...   0.0 MB
# of MO pairs included in trafo       ... 1
# of MO pairs treated in a batch      ... 1
# of batches needed                   ... 1
Data format used                      ... DOUBLE
 done (    0.000 sec)
Closing buffer JIJ ( 0.00 GB; CompressionRatio= 0.40)
(ij|kl) transformation completed in     0.000 sec
     ... leaving the RI transformation section
 >> 4-active ERIs are generated & stored in-core fast memory 
 >> End construction..
F12 correction will NOT be calculated
 >>>>>>>>>>>>>>>>>>>>>>>>>>>>>>>>>>>>> 
       Dipole-based Prescreening       
 <<<<<<<<<<<<<<<<<<<<<<<<<<<<<<<<<<<<< 
Threshold for domain construction in prescreening:
   TCutDO    ...     1.0e-02
--------------------------
ELECTRON PAIR PRESCREENING
--------------------------

PAO based multipole pair screening          .... used
   TCutDOij = 1.000000e-05
   TCutPre  = 1.000000e-06
 done

sum of pair energies estimated for screened out pairs ...       0.000000000000 Eh
                                                           
  __   __        __   ___     __        ___  __   __       
 /  ` |__) |  | |  \ |__     / _` |  | |__  /__` /__`     
 \__, |  \ \__/ |__/ |___    \__> \__/ |___ .__/ .__/ 
                                                           

Parameters for the crude guess:
   TScaleDOMP2PreScr   : 2.000e+00
   TScaleMKNMP2PreScr  : 1.000e+01
   TScalePNOMP2PreScr  : 1.000e+00
   TScalePairsMP2PreScr: 1.000e+00
   PAO overlap thresh    1.000e-08
Thresholds for map construction and integral transformation for crude MP2:
   TCutMKN                    ...     1.0e-02
   TCutDO                     ...     2.0e-02
   TCutPairs                  ...     1.0e-04
   TCutPairs_CrudeMP2         ...     1.0e-04
   TCutPNO_CrudeMP2           ...     3.3e-07
   TCutPNOSingles_CrudeMP2    ...     1.0e-08

CRUDE: Average # of AOs per PAO                   ...    24.0
CRUDE: Average # of atoms per PAO                 ...     3.0
CRUDE: Average # of atoms per a pair domain       ...    3.00
CRUDE: Average # of atoms per AUX domain          ...    1.50
CRUDE: Average # of atoms per a pair AUX domain   ...    1.92

 * Extended Maps .. 
CRUDE: Average # of PAOs (Atoms) per Occ          ...     3.0
CRUDE: Average # of PAOs (AOs) per Occ            ...    25.0

 * Trafo Maps .. 
CRUDE: Average # of PAOs (Atoms) per Occ (Trafo)  ...     3.0
CRUDE: Average # of PAOs (AOs) per Occ (Trafo)    ...    25.0
CRUDE: Average # of AUX (Atoms) per Occ (Trafo)   ...     3.0
CRUDE: Average # of AUX (AOs) per Occ (Trafo)     ...   151.0

--------------------------------
LOCAL RI TRANSFORMATION (IAVPAO)
--------------------------------

Orbital window:       1 to 4
Number of PAOs:      25
Basis functions:     24 (12 shells)
Aux. functions:     151 (61 shells)
Use SHARK:           on
Have SHARK:         yes

Processing maps (0.0 sec)
Average map sizes:
   Aux shells -> MOs               4.0
   Aux shells -> PAOs             25.0
   MOs        -> AO shells        12.0
   PAOs       -> AO shells        12.0

Calculating integrals (0.0 sec, 0.117 MB)
Sorting integrals (0.0 sec, 0.115 MB)
Total time for the integral transformation: 0.0 sec

-----------------------------------------
   _  _______   __    ___  _  ______     
  / |/ / __/ | / /___/ _ \/ |/ / __ \  
 /    / _/ | |/ /___/ ___/    / /_/ /    
/_/|_/___/ |___/   /_/  /_/|_/\____/    
                                         
                for open-shell molecules 
-----------------------------------------


 ==> UMP guess in NEV-PNO space 

Truncation parameters                       .... 
    PAOOverlapThresh     =        1.000e-08
Pair selection                          .... not used
    TCutPairs            =        1.000e-04
    TCutMKN              =        1.000e-02
    TCutDO               =        1.000e-02
    TCutCMO              =        1.000e-03
    TCutCPAO             =        1.000e-03
    TCutPNO              =        3.330e-07
    TScaleTCutPNO_SS     =        1.000e+00
    TScaleTCutPNO_SD     =        1.000e+00
    TScalePNO_Core       =        1.000e-02
    TCutDO_Crude         =        2.000e-02
    TCutMKN_Crude        =        1.000e-02
    TCutPairs_Crude      =        1.000e-04
    TCutPNO_Crude        =        3.330e-07
    TCutCMO              =        1.000e-03
    TCutCPAO             =        1.000e-03
Spin component scaling in ijab excitation            .... not used

Formation of guess energy and open-shell PNO.

NEV-PNO operators..
  E(ij->ab)
  E(ip->ab)
  E(pq->ra)
  E(ip->qr)
  E(ip->aq) and E(ip->qa)

 Norm of Semi-Internal Fock Operators ...   0.0000433844
  ==> Semi-internal excitations detected 

   .... Finished loop over pairs

                       ===========================
                         13 OF   13 PAIRS ARE KEPT CC PAIRS
                          0 OF   13 PAIRS ARE KEPT PT2 PAIRS
                          0 OF   13 PAIRS ARE SKIPPED
                       ===========================

 Initial PAO correlation energy (all pairs)    ...  -0.1536445349 Eh
 Energy constituents in PAO basis (Eh):
  | Vijab(+0) ...  -0.1017901532
  | Viab (-1) ...  -0.0331318287
  | Va   (-1) ...  -0.0000115401
  | Vija (+1) ...  -0.0080479660
  | Via  (+0) ...  -0.0106630469
  | Vi   (+1) ...  -0.0000000000
 Initial PNO correlation energy                ...  -0.1523384924 Eh
 Energy constituents in PNO basis (Eh):
  | Vijab(+0) ...  -0.1017815418 (err=  0.0000086114)
  | Viab (-1) ...  -0.0318332422 (err=  0.0012985865)
  | Va   (-1) ...  -0.0000115401 (err=  0.0000000000)
  | Vija (+1) ...  -0.0080491214 (err= -0.0000011554)
  | Via  (+0) ...  -0.0106630469 (err=  0.0000000000)
  | Vi   (+1) ...  -0.0000000000 (err=  0.0000000000)
 Sum of total truncation errors ...   0.0013060425 Eh
  | Pair screening ...   0.0000000000 Eh
  | PNO truncation ...   0.0013060425 Eh

 UMP2 correlation energy (PAO) ...  -0.1489220581
  | alpha-alpha ...  -0.0230369600 (NP_aa=    6)
  | alpha-beta  ...  -0.1149788638 (NP_ab=   12)
  | beta -beta  ...  -0.0109062343 (NP_bb=    3)
 UMP2 correlation energy (PNO) ...  -0.1474148995
  | alpha-alpha ...  -0.0221646554 (err=  0.0008723046, NP_aa=    6)
  | alpha-beta  ...  -0.1143451568 (err=  0.0006337070, NP_ab=   12)
  | beta -beta  ...  -0.0109050873 (err=  0.0000011470, NP_bb=    3)
 Sum of total UMP2 truncation errors ...   0.0015071586 Eh
  | Pair screening ...   0.0000000000 Eh
  | PNO truncation ...   0.0015071586 Eh
 Timing for NEV-PNO construction (sec.)
  | Intermediate construction  ..            0.000
  | Amplitude construction     ..            0.000
  | Total time                 ..            0.000
 Making pair pair interaction lists ...      ok
                                                 
  ___         ___     __        ___  __   __     
 |__  | |\ | |__     / _` |  | |__  /__` /__`   
 |    | | \| |___    \__> \__/ |___ .__/ .__/ 
                                                 

Thresholds for map construction and integral transformation:
   TCutMKN   ...     1.0e-03
   TCutDO    ...     1.0e-02
   TCutCMO   ...     1.0e-03
   TCutCPAO  ...     1.0e-03

--------------------------------
LOCAL RI TRANSFORMATION (IAVPAO)
--------------------------------

Orbital window:       1 to 4
Number of PAOs:      25
Basis functions:     24 (12 shells)
Aux. functions:     151 (61 shells)
Use SHARK:           on
Have SHARK:         yes

Processing maps (0.0 sec)
Average map sizes:
   Aux shells -> MOs               4.0
   Aux shells -> PAOs             25.0
   MOs        -> AO shells        12.0
   PAOs       -> AO shells        12.0

Calculating integrals (0.0 sec, 0.117 MB)
Sorting integrals (0.0 sec, 0.115 MB)
Total time for the integral transformation: 0.0 sec

 ==> UMP guess in NEV-PNO space 

Truncation parameters                       .... 
    PAOOverlapThresh     =        1.000e-08
Pair selection                          .... not used
    TCutPairs            =        1.000e-04
    TCutMKN              =        1.000e-03
    TCutDO               =        1.000e-02
    TCutCMO              =        1.000e-03
    TCutCPAO             =        1.000e-03
    TCutPNO              =        3.330e-07
    TScaleTCutPNO_SS     =        1.000e+00
    TScaleTCutPNO_SD     =        1.000e+00
    TScalePNO_Core       =        1.000e-02
    TScaleTCutPairs_Somo =        3.300e-01
    TScaleTCutPairs_Core =        1.000e+00
    TCutPairs_MP2        =        1.000e-05
    TCutCMO              =        1.000e-03
    TCutCPAO             =        1.000e-03
Spin component scaling in ijab excitation            .... not used

Formation of guess energy and open-shell PNO.

NEV-PNO operators..
  E(ij->ab)
  E(ip->ab)
  E(pq->ra)
  E(ip->qr)
  E(ip->aq) and E(ip->qa)

   .... Finished loop over pairs

 PNO Occupation Number Statistics: 
  | Av. % of trace(Dij) retained        ...  99.995558633668
  | Av. % of trace(Dip) retained        ...  99.999999996597
  | Av. % of trace(Dpq) retained        ... 100.000000000000
  | sigma^2 in % of trace(Dij) retained ...   1.34e-06
  | sigma^2 in % of trace(Dip) retained ...   1.47e-17
  | sigma^2 in % of trace(Dpq) retained ...   0.00e+00
  | Av. % of trace(Di) retained         ...  99.999951589524
  | Av. % of trace(Dp) retained         ... 100.000000000000
  | sigma^2 in % of trace(Di) retained  ...   1.17e-09
  | sigma^2 in % of trace(Dp) retained  ...   0.00e+00
 Distributions of % trace(Dij) recovered:
  |       >= 99.9  ...     6 (100.0 % of all IJ-pairs)
 Distributions of % trace(Dip) recovered:
  |       >= 99.9  ...     3 (100.0 % of all IP-pairs)
 Distributions of % trace(Dpq) recovered:
  |       >= 99.9  ...     1 (100.0 % of all PQ-pairs)
 Distributions of % trace(Di) recovered :
  |       >= 99.9  ...     3 (100.0 % of all I-pairs )
 Distributions of % trace(Dp) recovered :
  |       >= 99.9  ...     1 (100.0 % of all P-pairs )

                       ===========================
                         13 OF   13 PAIRS ARE KEPT
                       ===========================

 Initial PAO correlation energy (all pairs)    ...  -0.1536437891 Eh
 Energy constituents in PAO basis (Eh):
  | Vijab(+0) ...  -0.1018162973
  | Viab (-1) ...  -0.0331033655
  | Va   (-1) ...  -0.0000115401
  | Vija (+1) ...  -0.0080470374
  | Via  (+0) ...  -0.0106655487
  | Vi   (+1) ...  -0.0000000000
 Initial PNO correlation energy                ...  -0.1523475592 Eh
 Energy constituents in PNO basis (Eh):
  | Vijab(+0) ...  -0.1018073041 (err=  0.0000089932)
  | Viab (-1) ...  -0.0318149734 (err=  0.0012883922)
  | Va   (-1) ...  -0.0000115401 (err=  0.0000000000)
  | Vija (+1) ...  -0.0080481929 (err= -0.0000011554)
  | Via  (+0) ...  -0.0106655487 (err=  0.0000000000)
  | Vi   (+1) ...  -0.0000000000 (err=  0.0000000000)
 Sum of total truncation errors ...   0.0012962299 Eh
  | Pair screening ...   0.0000000000 Eh
  | PNO truncation ...   0.0012962299 Eh

 UMP2 correlation energy (PAO) ...  -0.1489202066
  | alpha-alpha ...  -0.0230084008 (NP_aa=    6)
  | alpha-beta  ...  -0.1150126145 (NP_ab=   12)
  | beta -beta  ...  -0.0108991913 (NP_bb=    3)
 UMP2 correlation energy (PNO) ...  -0.1474289141
  | alpha-alpha ...  -0.0221430768 (err=  0.0008653240, NP_aa=    6)
  | alpha-beta  ...  -0.1143875993 (err=  0.0006250152, NP_ab=   12)
  | beta -beta  ...  -0.0108982380 (err=  0.0000009533, NP_bb=    3)
 Sum of total UMP2 truncation errors ...   0.0014912925 Eh
  | Pair screening ...   0.0000000000 Eh
  | PNO truncation ...   0.0014912925 Eh
 Timing for NEV-PNO construction (sec.)
  | Intermediate construction  ..            0.000
  | Amplitude construction     ..            0.000
  | Total time                 ..            0.000
 Making pair pair interaction lists ...      ok
 Total size for 2-ext PNO integrals ...      0.0 MB
Checking the number of SOMO/SOMO doubles PNOs ...  No PNOs should be truncated!

--------------------------------
LOCAL RI TRANSFORMATION (VABPAO)
--------------------------------

Number of PAOs:      25
Basis functions:     24 (12 shells)
Aux. functions:     151 (61 shells)
Use SHARK:           on

Processing maps (0.0 sec)
Average map sizes:
   Aux shells -> PAOs             25.0
   PAOs       -> AO shells        12.0

Calculating integrals (0.0 sec, 0.722 MB)
Finished
-----------------------------
LOCAL RI TRANSFORMATION (IJV)
-----------------------------

Orbital window:       1 to 4
Basis functions:     24 (12 shells)
Aux. functions:     151 (61 shells)
Use SHARK:           on

Processing maps (0.0 sec)
Average map sizes:
   Aux shells -> MOs(i)            4.0
   Aux shells -> MOs(j)            4.0
   MOs        -> AO shells        12.0

Calculating integrals (0.0 sec, 0.020 MB)
Sorting integrals (0.0 sec, 0.018 MB)
Total time for the integral transformation: 0.0 sec


-------------------------------------
Pair Pair Term precalculation with     
RI-(ij|mn) and (im|jn) transformation  
ON THE FLY                             
-------------------------------------

   IBatch   1 (of   1)              ... done (    0.029 sec)
Total EXT                           ...           0.029 sec

IAVPA Available = YES
VABPAO Available= YES
IJV Available   = YES
IJK Available   = NO
PNO3i Available = YES
PNO3j Available = YES
PNO4 Available  = YES
---------------------
RI-PNO TRANSFORMATION
---------------------

Total Number of PNOs                   ...   221
Total Number of IJ-PNOs                ...   165
Total Number of IP-PNOs                ...    36
Total Number of PQ-PNOs                ...    20
Total Number of IJ-pairs               ...     9
Total Number of PI-pairs               ...     3
Total Number of PQ-pairs               ...     1
Average number of PNOs per pair        ...    17
Maximal number of PNOs per pair        ...    20
>> Statistics for ij-pairs..
   #pairs with  1 -  5 PNOs   :    0
   #pairs with  6 - 10 PNOs   :    0
   #pairs with 11 - 15 PNOs   :    0
   #pairs with 16 - 20 PNOs   :    9
   #pairs with 21 - 25 PNOs   :    0
   #pairs with 26 - 30 PNOs   :    0
   #pairs with 31 - 35 PNOs   :    0
   #pairs with 36 - 40 PNOs   :    0
   #pairs with 41 - 45 PNOs   :    0
   #pairs with 46 - 50 PNOs   :    0
>> Statistics for ip-pairs..
   #pairs with  1 -  5 PNOs   :    0
   #pairs with  6 - 10 PNOs   :    0
   #pairs with 11 - 15 PNOs   :    3
   #pairs with 16 - 20 PNOs   :    0
   #pairs with 21 - 25 PNOs   :    0
   #pairs with 26 - 30 PNOs   :    0
   #pairs with 31 - 35 PNOs   :    0
   #pairs with 36 - 40 PNOs   :    0
   #pairs with 41 - 45 PNOs   :    0
   #pairs with 46 - 50 PNOs   :    0
>> Statistics for pq-pairs..
   #pairs with  1 -  5 PNOs   :    0
   #pairs with  6 - 10 PNOs   :    0
   #pairs with 11 - 15 PNOs   :    0
   #pairs with 16 - 20 PNOs   :    1
   #pairs with 21 - 25 PNOs   :    0
   #pairs with 26 - 30 PNOs   :    0
   #pairs with 31 - 35 PNOs   :    0
   #pairs with 36 - 40 PNOs   :    0
   #pairs with 41 - 45 PNOs   :    0
   #pairs with 46 - 50 PNOs   :    0

Generation of (ij|ab)[P] integrals            ... on
Generation of (ia|bc)[P],(ja|bc)[P] integrals ... on
Storage of 3 and 4 external integrals         ... on
Generation of ALL (ka|bc)[P] integrals        ... on
Keep RI integrals in memory                   ... off

Ibatch:  1 (of  1)
Starting 2-4 index PNO integral generation ... done

Timings:
Total PNO integral transformation time     ...          0.022 sec
Size of the 3-external file                ...         0 MB
Size of the 4-external file                ...         0 MB
Size of the IKJL file                      ...         0 MB
Size of the all 3-external file            ...         0 MB
Size of the 1-external file                ...         0 MB

Size of the PAO/PNO coefficient matrices   ...       0.0 MB

Average # of AOs per PAO                   ...    24.0
Average # of atoms per PAO                 ...     3.0
Average # of atoms per a pair domain       ...    3.00
Average # of atoms per AUX domain          ...    2.50
Average # of atoms per a pair AUX domain   ...    2.85

 * Extended Maps .. 
Average # of PAOs (Atoms) per Occ          ...     3.0
Average # of PAOs (AOs) per Occ            ...    25.0

 * Trafo Maps .. 
Average # of PAOs (Atoms) per Occ (Trafo)  ...     3.0
Average # of PAOs (AOs) per Occ (Trafo)    ...    25.0
Average # of AUX (Atoms) per Occ (Trafo)   ...     3.0
Average # of AUX (AOs) per Occ (Trafo)     ...   151.0

Making pair/pair overlap matrices          ... done (    0.001 sec)
Size of the pair overlap file              ...       0.0 MB
Total # unrestricted pairs ...         21
  # of alpha-alpha pairs   ...          6
  # of alpha-beta pairs    ...         12
  # of beta-beta pairs     ...          3
Constructing the guess amplitudes          ... done (    0.001 sec)

-------------------------
FINAL STARTUP INFORMATION
-------------------------

E(0)                                       ...    -75.558526644
E(SL-UMP2 in NEV-PNO space)                ...     -0.148920207
Initial E(tot)                             ...    -75.707446850
<T|T>                                      ...      0.027549965
Number of unrestricted pairs included      ... 21
Total number of pairs                      ... 21
----------------------------------------------------------
                     OPEN-SHELL COUPLED CLUSTER ITERATIONS
----------------------------------------------------------

Number of PNO amplitudes to be optimized        ...             5814
Number of canonical amplitudes for strong pairs ...             8062
Untruncated number of canonical amplitudes      ...             8062

Iter       E(tot)           E(Corr)          Delta-E          Residual     Time
  0    -75.711340450     -0.151322514     -0.002402307      0.018550433    0.05
                           *** Turning on DIIS ***
  1    -75.725201632     -0.165183696     -0.013861182      0.007659070    0.04
  2    -75.730126169     -0.170108233     -0.004924537      0.002088602    0.04
  3    -75.730908416     -0.170890480     -0.000782247      0.000902877    0.04
  4    -75.731085346     -0.171067409     -0.000176929      0.000425802    0.04
  5    -75.731109218     -0.171091282     -0.000023872      0.000188260    0.04
  6    -75.731113773     -0.171095836     -0.000004554      0.000073071    0.05
  7    -75.731114376     -0.171096440     -0.000000604      0.000021310    0.04
               --- The CCSD iterations have converged ---

E(0)                                       ...    -75.558526644
E(CORR)(strong-pairs)                      ...     -0.171096440
E(CORR)(weak-pairs)                        ...     -0.001491292
E(CORR)(corrected)                         ...     -0.172587733
E(TOT)                                     ...    -75.731114376
Singles norm <S|S>**1/2                    ...      0.032187654 ( 0.017003162, 0.015184492)  
T1 diagnostic                              ...      0.012165790                              
<S**2>(linearized)                         ...      0.7501480 (ideal value:      0.7500000)

----------------------
LARGEST PNO AMPLITUDES
----------------------
   1a->  8a   1b->  8b       0.038704
   3a->  7a   3b->  7b       0.035642
   2a->  7a   2b->  7b       0.035642
   3a->  5a   3b->  5b       0.031907
   2a->  5a   2b->  5b       0.031907
   4a->  7a   1b->  8b       0.030896
[...]
   4a->  5a   3b->  4b       0.021786


Triples Correction (T)                     ...      0.000000000
Final correlation energy                   ...     -0.172587733
E(CCSD)                                    ...    -75.731114376
E(CCSD(T))                                 ...    -75.731114376

----------------------------
STATISTICS FOR PAIR-ENERGIES
----------------------------
Minimum, maximum and average ratios of UMP and CCSD pair-energies ... 0.93, 1.22, 1.07

        !!!!!!!!!!!!!!!!!!!!!!!!!!!!!!!!!!!!!!!!!!!!!!!!!!!!!!!!!!!!!!!!!!!!!!!!!! 
        !  Warning: Linearized densities requested! These are not the proper     !
        !  density matrices for non-variational theories, e.g., CCSD, QCISD.     !
        !  It is better to use the Density = Unrelaxed option in the input.      !
        !!!!!!!!!!!!!!!!!!!!!!!!!!!!!!!!!!!!!!!!!!!!!!!!!!!!!!!!!!!!!!!!!!!!!!!!!! 

NORM  =      1.047309368 sqrt=     1.023381341
W(HF) =      0.954827704
------------------------------------------------------------------------------
                           ORCA POPULATION ANALYSIS
------------------------------------------------------------------------------
Input electron density              ... water_spe_CCSD.mdcip
Input spin density                  ... water_spe_CCSD.mdcir
BaseName (.gbw .S,...)              ... water_spe_CCSD

                    ********************************
                    * MULLIKEN POPULATION ANALYSIS *
                    ********************************

------------------------------------------
MULLIKEN ATOMIC CHARGES AND SPIN DENSITIES
------------------------------------------
   0 O :    0.391458    1.061084
   1 H :    0.304268   -0.030540
   2 H :    0.304273   -0.030544
Sum of atomic charges       :    1.0000000
Sum of atomic spin densities:    1.0000000

---------------------------------------------------
MULLIKEN REDUCED ORBITAL CHARGES AND SPIN DENSITIES
---------------------------------------------------
CHARGE
  0 O s       :     3.712405  s :     3.712405
      pz      :     1.230538  p :     3.867258
      px      :     1.394026
      py      :     1.242695
      dz2     :     0.005176  d :     0.028879
      dxz     :     0.004284
      dyz     :     0.007158
      dx2y2   :     0.007943
      dxy     :     0.004318
  1 H s       :     0.622791  s :     0.622791
      pz      :     0.012192  p :     0.072941
      px      :     0.048358
      py      :     0.012391
  2 H s       :     0.622786  s :     0.622786
      pz      :     0.025662  p :     0.072941
      px      :     0.020751
      py      :     0.026528

SPIN
  0 O s       :     0.036948  s :     0.036948
      pz      :     0.508361  p :     1.019811
      px      :     0.026107
      py      :     0.485342
      dz2     :     0.001421  d :     0.004325
      dxz     :     0.000809
      dyz     :     0.000834
      dx2y2   :     0.000492
      dxy     :     0.000769
  1 H s       :    -0.036819  s :    -0.036819
      pz      :     0.003494  p :     0.006279
      px      :    -0.000516
      py      :     0.003301
  2 H s       :    -0.036822  s :    -0.036822
      pz      :     0.003546  p :     0.006279
      px      :    -0.000624
      py      :     0.003356


                     *******************************
                     * LOEWDIN POPULATION ANALYSIS *
                     *******************************

-----------------------------------------
LOEWDIN ATOMIC CHARGES AND SPIN DENSITIES
-----------------------------------------
   0 O :    0.608084    0.998156
   1 H :    0.195956    0.000923
   2 H :    0.195961    0.000921

--------------------------------------------------
LOEWDIN REDUCED ORBITAL CHARGES AND SPIN DENSITIES
--------------------------------------------------
CHARGE
  0 O s       :     3.453787  s :     3.453787
      pz      :     1.232612  p :     3.900763
      px      :     1.421868
      py      :     1.246282
      dz2     :     0.006295  d :     0.037366
      dxz     :     0.004372
      dyz     :     0.010176
      dx2y2   :     0.012103
      dxy     :     0.004421
  1 H s       :     0.636067  s :     0.636067
      pz      :     0.027991  p :     0.167977
      px      :     0.111733
      py      :     0.028253
  2 H s       :     0.636064  s :     0.636064
      pz      :     0.064472  p :     0.167975
      px      :     0.036966
      py      :     0.066538

SPIN
  0 O s       :     0.022020  s :     0.022020
      pz      :     0.489493  p :     0.972295
      px      :     0.015859
      py      :     0.466943
      dz2     :     0.001133  d :     0.003841
      dxz     :     0.000664
      dyz     :     0.001217
      dx2y2   :     0.000201
      dxy     :     0.000625
  1 H s       :    -0.024545  s :    -0.024545
      pz      :     0.010975  p :     0.025468
      px      :     0.004056
      py      :     0.010437
  2 H s       :    -0.024547  s :    -0.024547
      pz      :     0.012869  p :     0.025468
      px      :     0.000173
      py      :     0.012426


                      *****************************
                      * MAYER POPULATION ANALYSIS *
                      *****************************

  NA   - Mulliken gross atomic population
  ZA   - Total nuclear charge
  QA   - Mulliken gross atomic charge
  VA   - Mayer's total valence
  BVA  - Mayer's bonded valence
  FA   - Mayer's free valence

  ATOM       NA         ZA         QA         VA         BVA        FA
  0 O      7.6085     8.0000     0.3915     2.9594     1.7481     1.2113
  1 H      0.6957     1.0000     0.3043     0.9338     0.8861     0.0478
  2 H      0.6957     1.0000     0.3043     0.9338     0.8861     0.0478

  Mayer bond orders larger than 0.100000
B(  0-O ,  1-H ) :   0.8740 B(  0-O ,  2-H ) :   0.8740 



--------------------------------------------------------------------------------
                                    TIMINGS
--------------------------------------------------------------------------------


Total execution time                   ...        1.582 sec

Localization of occupied MO's          ...        0.154 sec (  9.7%)
Fock Matrix Formation                  ...        0.125 sec (  7.9%)
Differential overlap integrals         ...        0.071 sec (  4.5%)
Organizing maps                        ...        0.000 sec (  0.0%)
RI 3-index integral generations        ...        0.097 sec (  6.1%)
RI-PNO integral transformation         ...        0.061 sec (  3.9%)
Initial Guess                          ...        0.038 sec (  2.4%)
DIIS Solver                            ...        0.013 sec (  0.8%)
State Vector Update                    ...        0.001 sec (  0.0%)
Sigma-vector construction              ...        0.358 sec ( 22.6%)
  <D|H|D>(0-ext)                       ...        0.009 sec (  2.5% of sigma)
  <D|H|D>(2-ext)                       ...        0.072 sec ( 20.2% of sigma)
  <D|H|D>(4-ext)                       ...        0.031 sec (  8.7% of sigma)
  <D|H|D>(4-ext-corr)                  ...        0.062 sec ( 17.4% of sigma)
  CCSD doubles correction              ...        0.009 sec (  2.6% of sigma)
  <S|H|S>                              ...        0.015 sec (  4.2% of sigma)
  <S|H|D>(1-ext)                       ...        0.003 sec (  0.9% of sigma)
  <S|H|D>(3-ext)                       ...        0.005 sec (  1.5% of sigma)
  Fock-dressing                        ...        0.057 sec ( 15.9% of sigma)
  Singles amplitudes                   ...        0.003 sec (  0.8% of sigma)
  (ik|jl)-dressing                     ...        0.017 sec (  4.7% of sigma)
  (ij|ab),(ia|jb)-dressing             ...        0.050 sec ( 13.9% of sigma)


Maximum memory used throughout the entire MDCI-calculation: 14.8 MB

-------------------------   --------------------
FINAL SINGLE POINT ENERGY       -75.731114376407
-------------------------   --------------------



           ************************************************************
           *        Program running with 4 parallel MPI-processes     *
           *              working on a common directory               *
           ************************************************************

------------------------------------------------------------------------------
                              ORCA PROPERTY CALCULATIONS
------------------------------------------------------------------------------

GBWName                                 ... water_spe_CCSD.gbw
Number of atoms                         ...      3
Number of basis functions               ...     24
Max core memory                         ...    350 MB

Electric properties:
Dipole moment                           ... YES
Quadrupole moment                       ...  NO
Static polarizability (Dipole/Dipole)   ...  NO
Static polarizability (Dipole/Quad.)    ...  NO
Static polarizability (Quad./Quad.)     ...  NO
Static polarizability (Velocity)        ...  NO

Atomic electric properties:
Dipole moment                           ...  NO
Quadrupole moment                       ...  NO
Static polarizability                   ...  NO

Choice of electric origin               ... Center of mass
Position of electric origin             ...    -5.993827    -1.179295     0.045610

General magnetic properties:
Magnetizability                         ...  NO

EPR properties:
g-Tensor (aka g-matrix)                 ...  NO
Zero-Field splitting spin-orbit         ...  NO
Zero-field splitting spin-spin          ...  NO
Hyperfine couplings                     ...  NO (   0 nuclei)
Quadrupole couplings                    ...  NO (   0 nuclei)
Contact density                         ...  NO (   0 nuclei)

NMR properties:
Chemical shifts                         ...  NO (   0 nuclei)
Spin-rotation constants                 ...  NO (   0 nuclei)
Spin-spin couplings                     ...  NO (   0 nuclei,    0 pairs)

Choice of magnetic origin               ... GIAO
Position of magnetic origin             ...     0.000000     0.000000     0.000000

Properties with geometric perturbations:
SCF Hessian                             ...  NO
IR spectrum                             ...  NO
VCD spectrum                            ...  NO
X-ray spectroscopy properties:
SCF XES/XAS/RIXS spectra                ...  NO


-------------
DIPOLE MOMENT
-------------

Method             : SCF
Type of density    : Electron Density
Multiplicity       :   2
Irrep              :   0
Energy             :   -75.5631555798112089 Eh
Relativity type    : 
Basis              : AO
                                X                 Y                 Z
Electronic contribution:      0.020169982      -0.020437192       0.019919480
Nuclear contribution   :      0.573521450      -0.580405072       0.566562915
                        -----------------------------------------
Total Dipole Moment    :      0.593691432      -0.600842264       0.586482394
                        -----------------------------------------
Magnitude (a.u.)       :      1.028320253
Magnitude (Debye)      :      2.613782361



--------------------
Rotational spectrum 
--------------------
 
Rotational constants in cm-1:            26.442708            14.345901             9.300255 
Rotational constants in MHz :        792732.440810        430079.286725        278814.632727 

Dipole components along the rotational axes: 
x,y,z [a.u.] :    -0.000025    -1.028320    -0.000022 
x,y,z [Debye]:    -0.000064    -2.613782    -0.000055 

 

-------------
DIPOLE MOMENT
-------------

Method             : MDCI(SD)
Type of density    : Electron Density
Multiplicity       :   2
Level              : Linearized density
Irrep              :   0
Energy             :     0.0000000000000000 Eh
Relativity type    : 
Basis              : AO
                                X                 Y                 Z
Electronic contribution:     -0.002740555       0.002767493      -0.002706716
Nuclear contribution   :      0.573521450      -0.580405072       0.566562915
                        -----------------------------------------
Total Dipole Moment    :      0.570780894      -0.577637579       0.563856199
                        -----------------------------------------
Magnitude (a.u.)       :      0.988630272
Magnitude (Debye)      :      2.512898449



--------------------
Rotational spectrum 
--------------------
 
Rotational constants in cm-1:            26.442708            14.345901             9.300255 
Rotational constants in MHz :        792732.440810        430079.286725        278814.632727 

Dipole components along the rotational axes: 
x,y,z [a.u.] :    -0.000019    -0.988630    -0.000004 
x,y,z [Debye]:    -0.000048    -2.512898    -0.000010 

 

Dipole moment calculation done in   0.0 sec 

Maximum memory used throughout the entire PROP-calculation: 2.4 MB

--------------------------------
SUGGESTED CITATIONS FOR THIS RUN
--------------------------------

Below you find a list of papers that are relevant to this ORCA run
We neither can nor want to force you to cite these papers, but we appreciate if you do
You receive ORCA, which is the product of decades of hard work by many enthusiastic individuals, for free
The only thing we kindly ask in return is that you cite our papers,
We deeply appreciate it, if you show your appreciation for ORCA by not just citing the generic ORCA reference.

Please note that relegating all ORCA citations to the supporting information does *not* help us.
SI sections are not indexed - citations you put there will not count into any citation statistics
But we need these citations in order to attract the funding resources that allow us to do what we are doing

Therefore, if you are a happy ORCA user, please consider citing a few of the papers listed below in the main body of your paper

In addition to the list printed below, the program has created the file water_spe_CCSD.bibtex that contains the list in bibtex format
You can import this file easily into all common literature databanks and citation aid programs


List of essential papers. We consider these as the minimum necessary citations

  1. Neese,F.
     Software update: the ORCA program system, version 5.0
     WIRES Comput. Molec. Sci., 2022 12(1)e1606
     doi.org/10.1002/wcms.1606

List of papers to cite with high priority. The work reported in these papers was absolutely
necessary for this run to complete.
Our perspective: the developers of density functionals and basis sets usually get cited in chemistry papers
Good! But without the algorithms to do something with them, the functionals or basis sets would not do anything.
Hence, in our opinion, the algorithm design and method developments papers are equally worthy of getting cited

  1. Neese,F.
     An improvement of the resolution of the identity approximation for the formation of the Coulomb matrix
     J. Comp. Chem., 2003 24(14)1740-1747
     doi.org/10.1002/jcc.10318
  2. Neese,F.; Wennmohs,F.; Hansen,A.; Becker,U.
     Efficient, approximate and parallel Hartree-Fock and hybrid DFT calculations. A 'chain-of-spheres' algorithm for the Hartree-Fock exchange
     Chem. Phys., 2009 356(1-3)98-109
     doi.org/10.1016/j.chemphys.2008.10.036
  3. Neese,F.; Hansen,A.; Liakos,D.G.
     Efficient and accurate approximations to the local coupled cluster singles doubles method using a truncated pair natural orbital basis
     J. Chem. Phys., 2009 131 064103
     doi.org/10.1063/1.3173827
  4. Neese,F.; Wennmohs,F.; Hansen,A.
     Efficient and accurate local approximations to coupled-electron pair approaches: An attempt to revive the pair natural orbital method
     J. Chem. Phys., 2009 130 114108
     doi.org/10.1063/1.3086717
  5. Riplinger,C.; Neese,F.
     An efficient and near linear scaling pair natural orbital based local coupled cluster method
     J. Chem. Phys., 2013 138(3)Art. No. 034106
     doi.org/10.1063/1.4773581
  6. Datta,D.; Kossmann,S.; Neese,F.
     Analytic energy derivatives for the calculation of the first-order molecular properties using the domain-based local pair-natural orbital coupled-cluster theory
     J. Chem. Phys., 2016 145 
     doi.org/10.1063/1.4962369
  7. Riplinger,C.; Pinski,P.; Becker,U.; Valeev,E.F.; Neese,F.
     Sparse maps-A systematic infrastructure for reduced-scaling electronic structure methods. II. Linear scaling domain based pair natural orbital coupled cluster theory
     J. Chem. Phys., 2016 144 
     doi.org/10.1063/1.4939030
  8. Bistoni,G.; Riplinger,C.; Minenkov,Y.; Cavallo,L.; Auer,A.A.; Neese,F.
     Treating Subvalence Correlation Effects in Domain Based Pair Natural Orbital Coupled Cluster Calculations: An Out-of-the-Box Approach
     J. Theo. Comp. Chem., 2017 13 3220-3227
     doi.org/10.1021/acs.jctc.7b00352
  9. Saitow,M.; Becker,U.; Riplinger,C.; Valeev,E.; Neese,F.
     A new near-linear scaling, efficient and accurate, open-shell domain-based local pair natural orbital coupled cluster singles and doubles theory
     J. Chem. Phys., 2017 146 164105
 10. Stoychev,G.L.; Auer,A.A.; Neese,F.
     Automatic Generation of Auxiliary Basis Sets
     J. Theo. Comp. Chem., 2017 13 554-562
     doi.org/10.1021/acs.jctc.6b01041
 11. Helmich-Paris,B.; de Souza,B.; Neese,F.; Izsák,R.
     An improved chain of spheres for exchange algorithm
     J. Chem. Phys., 2021 155 104109
     doi.org/doi: 10.1063/5.0058766.
 12. Neese,F.
     The SHARK Integral Generation and Digestion System
     J. Comp. Chem., 2022  1-16
     doi.org/10.1002/jcc.26942

List of suggested additional citations. These are papers that are important in the 'surrounding' of 
of this run, or papers that preceded the highly important papers. If you like your results we are grateful for a citation.

  1. Hansen,A.; Liakos,D.G.; Neese,F.
     Efficient and accurate local single reference correlation methods for high-spin open-shell molecules using pair natural orbitals
     J. Chem. Phys., 2011 135 214102
     doi.org/10.1063/1.3663855
  2. Izsak,R.; Neese,F.
     An overlap fitted chain of spheres exchange method
     J. Chem. Phys., 2011 135 144105
     doi.org/10.1063/1.3646921
  3. Izsak,R.; Hansen,A.; Neese,F.
     The resolution of identity and chain of spheres approximations for the LPNO-CCSD singles Fock term
     Molec. Phys., 2012 110 2413-2417
     doi.org/10.1080/00268976.2012.687466
  4. Neese,F.
     The ORCA program system
     WIRES Comput. Molec. Sci., 2012 2(1)73-78
     doi.org/10.1002/wcms.81
  5. Izsak,R.; Neese,F.; Klopper,W.
     Robust fitting techniques in the chain of spheres approximation to the Fock exchange: The role of the complementary space
     J. Chem. Phys., 2013 139 
     doi.org/10.1063/1.4819264
  6. Neese,F.
     Software update: the ORCA program system, version 4.0
     WIRES Comput. Molec. Sci., 2018 8(1)1-6
     doi.org/10.1002/wcms.1327
  7. Saitow,M.; Neese,F.
     Accurate spin-densities based on the domain-based local pair-natural orbital coupled-cluster theory
     J. Chem. Phys., 2018 149 034104
  8. Neese,F.; Wennmohs,F.; Becker,U.; Riplinger,C.
     The ORCA quantum chemistry program package
     J. Chem. Phys., 2020 152 Art. No. L224108
     doi.org/10.1063/5.0004608

List of optional additional citations

  1. Neese,F.
     Approximate second-order SCF convergence for spin unrestricted wavefunctions
     Chem. Phys. Lett., 2000 325(1-3)93-98
     doi.org/10.1016/s0009-2614(00)00662-x

Timings for individual modules:

Sum of individual times          ...        5.793 sec (=   0.097 min)
Startup calculation              ...        1.730 sec (=   0.029 min)  29.9 %
SCF iterations                   ...        1.695 sec (=   0.028 min)  29.3 %
Property integrals               ...        0.166 sec (=   0.003 min)   2.9 %
Property calculations            ...        0.179 sec (=   0.003 min)   3.1 %
MDCI module                      ...        2.022 sec (=   0.034 min)  34.9 %
                             ****ORCA TERMINATED NORMALLY****
TOTAL RUN TIME: 0 days 0 hours 0 minutes 5 seconds 976 msec
